HEADER
"PSFversion" "1.00"
"simulator" "spectre"
"version" "10.1.1.164.isr11"
"date" "3:02:49 PM, Fri Oct 17, 2014"
"design" "* Spectre Timing Acquisition"
"analysis type" "tran"
"analysis name" "transient1-012_transient1"
"analysis description" "Transient Analysis `transient1-012_transient1': time = (0 s -> 39 ns)"
"xVecSorted" "ascending"
"tolerance.relative" 0.00100000
"start" 0.00000
"outputstart" 0.00000
"stop" 3.90000e-08
"step" 3.90000e-11
"maxstep" 7.80000e-10
"ic" "all"
"useprevic" "no"
"skipdc" "no"
"reltol" 0.00100000
"abstol(V)" 1.00000e-06
"abstol(I)" 1.00000e-12
"temp" 25.0000
"tnom" 27.0000
"tempeffects" "all"
"errpreset" "moderate"
"method" "traponly"
"lteratio" 3.50000
"relref" "sigglobal"
"cmin" 0.00000
"gmin" 1.00000e-12
TYPE
"sweep" FLOAT DOUBLE PROP(
"key" "sweep"
)
"Tau" FLOAT DOUBLE PROP(
"units" "N*m"
"key" "node"
"tolerance" 1.00000e-06
)
"Alpha" FLOAT DOUBLE PROP(
"units" "rads/s^2"
"key" "node"
"tolerance" 1.00000e-06
)
"Omega" FLOAT DOUBLE PROP(
"units" "rads/s"
"key" "node"
"tolerance" 1.00000e-06
)
"Theta" FLOAT DOUBLE PROP(
"units" "rads"
"key" "node"
"tolerance" 1.00000e-06
)
"F" FLOAT DOUBLE PROP(
"units" "N"
"key" "node"
"tolerance" 1.00000e-06
)
"Imp" FLOAT DOUBLE PROP(
"units" "m/s^3"
"key" "node"
"tolerance" 1.00000e-06
)
"Acc" FLOAT DOUBLE PROP(
"units" "m/s^2"
"key" "node"
"tolerance" 1.00000e-06
)
"Vel" FLOAT DOUBLE PROP(
"units" "m/s"
"key" "node"
"tolerance" 1.00000e-06
)
"Pos" FLOAT DOUBLE PROP(
"units" "m"
"key" "node"
"tolerance" 1.00000e-06
)
"Phi" FLOAT DOUBLE PROP(
"units" "Wb"
"key" "node"
"tolerance" 1.00000e-09
)
"Q" FLOAT DOUBLE PROP(
"units" "coul"
"key" "node"
"tolerance" 1.00000e-14
)
"V" FLOAT DOUBLE PROP(
"units" "V"
"key" "node"
"tolerance" 1.00000e-06
)
"I" FLOAT DOUBLE PROP(
"units" "A"
"key" "branch"
"tolerance" 1.00000e-12
)
"MMF" FLOAT DOUBLE PROP(
"units" "A*turn"
"key" "node"
"tolerance" 1.00000e-12
)
"Wb" FLOAT DOUBLE PROP(
"units" "Wb"
"key" "node"
"tolerance" 1.00000e-09
)
"Temp" FLOAT DOUBLE PROP(
"units" "C"
"key" "node"
"tolerance" 0.000100000
)
"Pwr" FLOAT DOUBLE PROP(
"units" "W"
"key" "node"
"tolerance" 1.00000e-09
)
"U" FLOAT DOUBLE PROP(
"units" ""
"key" "node"
"tolerance" 1.00000e-06
)
"V/Sec" FLOAT DOUBLE PROP(
"units" "V/s"
"key" "node"
"tolerance" 0.000100000
)
"I/Sec" FLOAT DOUBLE PROP(
"units" "A/s"
"key" "node"
"tolerance" 1.00000e-06
)
"1/Sec" FLOAT DOUBLE PROP(
"units" "1/s"
"key" "node"
"tolerance" 0.000100000
)
"HOD" FLOAT DOUBLE PROP(
"units" ""
"key" "node"
"tolerance" 0.0100000
)
"A" FLOAT DOUBLE PROP(
"key" "inst"
)
"W" FLOAT DOUBLE PROP(
"key" "inst"
)
SWEEP
"time" "sweep" PROP(
"sweep_direction" 0
"units" "s"
"plot" 0
"grid" 1
)
TRACE
"Vn_D0:v" "V" PROP(
"units" "V"
)
"Vn_D0:i" "A" PROP(
"units" "A"
)
"Vn_D0:pwr" "W" PROP(
"units" "W"
)
"Vn_D1:v" "V" PROP(
"units" "V"
)
"Vn_D1:i" "A" PROP(
"units" "A"
)
"Vn_D1:pwr" "W" PROP(
"units" "W"
)
"Vn_GND:v" "V" PROP(
"units" "V"
)
"Vn_GND:i" "A" PROP(
"units" "A"
)
"Vn_GND:pwr" "W" PROP(
"units" "W"
)
"Vn_SD:v" "V" PROP(
"units" "V"
)
"Vn_SD:i" "A" PROP(
"units" "A"
)
"Vn_SD:pwr" "W" PROP(
"units" "W"
)
"Vn_VDD:v" "V" PROP(
"units" "V"
)
"Vn_VDD:i" "A" PROP(
"units" "A"
)
"Vn_VDD:pwr" "W" PROP(
"units" "W"
)
"Vn_Z:v" "V" PROP(
"units" "V"
)
"Vn_Z:i" "A" PROP(
"units" "A"
)
"Vn_Z:pwr" "W" PROP(
"units" "W"
)
"n_Z" "V"
"n_D0" "V"
"n_D1" "V"
"n_SD" "V"
"Vn_D0:n" "I"
"Vn_D0:p" "I"
"Vn_D1:n" "I"
"Vn_D1:p" "I"
"Vn_GND:n" "I"
"Vn_GND:p" "I"
"Vn_SD:n" "I"
"Vn_SD:p" "I"
"Vn_VDD:n" "I"
"Vn_VDD:p" "I"
"Vn_Z:n" "I"
"Vn_Z:p" "I"
VALUE
"time" 0.000000000000000e+00
"Vn_D0:v" 0.000000000000000e+00
"Vn_D0:i" 6.510570961348576e-14
"Vn_D0:pwr" 0.000000000000000e+00
"Vn_D1:v" 0.000000000000000e+00
"Vn_D1:i" -4.653010742690437e-13
"Vn_D1:pwr" -0.000000000000000e+00
"Vn_GND:v" 0.000000000000000e+00
"Vn_GND:i" 6.075187591979712e-10
"Vn_GND:pwr" 0.000000000000000e+00
"Vn_SD:v" 0.000000000000000e+00
"Vn_SD:i" -9.790769334738839e-13
"Vn_SD:pwr" -0.000000000000000e+00
"Vn_VDD:v" 1.200000000000000e+00
"Vn_VDD:i" -6.061394868998710e-10
"Vn_VDD:pwr" -7.273673842798453e-10
"Vn_Z:v" 0.000000000000000e+00
"Vn_Z:i" 0.000000000000000e+00
"Vn_Z:pwr" 0.000000000000000e+00
"n_Z" 1.410791788739524e-06
"n_D0" 0.000000000000000e+00
"n_D1" 1.200000000000000e+00
"n_SD" 1.200000000000000e+00
"Vn_D0:n" -6.510570961348576e-14
"Vn_D0:p" 6.510570961348576e-14
"Vn_D1:n" 4.653010742690437e-13
"Vn_D1:p" -4.653010742690437e-13
"Vn_GND:n" -6.075187591979712e-10
"Vn_GND:p" 6.075187591979712e-10
"Vn_SD:n" 9.790769334738839e-13
"Vn_SD:p" -9.790769334738839e-13
"Vn_VDD:n" 6.061394868998710e-10
"Vn_VDD:p" -6.061394868998710e-10
"Vn_Z:n" 0.000000000000000e+00
"Vn_Z:p" 0.000000000000000e+00
"time" 3.900000000000000e-11
"Vn_D0:v" 0.000000000000000e+00
"Vn_D0:i" 6.510783104407146e-14
"Vn_D0:pwr" 0.000000000000000e+00
"Vn_D1:v" 0.000000000000000e+00
"Vn_D1:i" -4.653011230043612e-13
"Vn_D1:pwr" -0.000000000000000e+00
"Vn_GND:v" 0.000000000000000e+00
"Vn_GND:i" 6.075187602046152e-10
"Vn_GND:pwr" 0.000000000000000e+00
"Vn_SD:v" 0.000000000000000e+00
"Vn_SD:i" -9.790771885870073e-13
"Vn_SD:pwr" -0.000000000000000e+00
"Vn_VDD:v" 1.200000000000000e+00
"Vn_VDD:i" -6.061394875883839e-10
"Vn_VDD:pwr" -7.273673851060607e-10
"Vn_Z:v" 0.000000000000000e+00
"Vn_Z:i" -2.135684271516055e-18
"Vn_Z:pwr" -0.000000000000000e+00
"n_Z" 1.410791772081187e-06
"n_D0" 0.000000000000000e+00
"n_D1" 1.200000000000000e+00
"n_SD" 1.200000000000000e+00
"Vn_D0:n" -6.510783104407146e-14
"Vn_D0:p" 6.510783104407146e-14
"Vn_D1:n" 4.653011230043612e-13
"Vn_D1:p" -4.653011230043612e-13
"Vn_GND:n" -6.075187602046152e-10
"Vn_GND:p" 6.075187602046152e-10
"Vn_SD:n" 9.790771885870073e-13
"Vn_SD:p" -9.790771885870073e-13
"Vn_VDD:n" 6.061394875883839e-10
"Vn_VDD:p" -6.061394875883839e-10
"Vn_Z:n" 2.135684271516055e-18
"Vn_Z:p" -2.135684271516055e-18
"time" 1.170000000000000e-10
"Vn_D0:v" 0.000000000000000e+00
"Vn_D0:i" 6.510783512221114e-14
"Vn_D0:pwr" 0.000000000000000e+00
"Vn_D1:v" 0.000000000000000e+00
"Vn_D1:i" -4.653010895267358e-13
"Vn_D1:pwr" -0.000000000000000e+00
"Vn_GND:v" 0.000000000000000e+00
"Vn_GND:i" 6.075187578678908e-10
"Vn_GND:pwr" 0.000000000000000e+00
"Vn_SD:v" 0.000000000000000e+00
"Vn_SD:i" -9.790770026660271e-13
"Vn_SD:pwr" -0.000000000000000e+00
"Vn_VDD:v" 1.200000000000000e+00
"Vn_VDD:i" -6.061394870788833e-10
"Vn_VDD:pwr" -7.273673844946599e-10
"Vn_Z:v" 0.000000000000000e+00
"Vn_Z:i" -5.302725231487933e-19
"Vn_Z:pwr" -0.000000000000000e+00
"n_Z" 1.410791763808936e-06
"n_D0" 0.000000000000000e+00
"n_D1" 1.200000000000000e+00
"n_SD" 1.200000000000000e+00
"Vn_D0:n" -6.510783512221114e-14
"Vn_D0:p" 6.510783512221114e-14
"Vn_D1:n" 4.653010895267358e-13
"Vn_D1:p" -4.653010895267358e-13
"Vn_GND:n" -6.075187578678908e-10
"Vn_GND:p" 6.075187578678908e-10
"Vn_SD:n" 9.790770026660271e-13
"Vn_SD:p" -9.790770026660271e-13
"Vn_VDD:n" 6.061394870788833e-10
"Vn_VDD:p" -6.061394870788833e-10
"Vn_Z:n" 5.302725231487933e-19
"Vn_Z:p" -5.302725231487933e-19
"time" 2.730000000000000e-10
"Vn_D0:v" 0.000000000000000e+00
"Vn_D0:i" 6.510782928545146e-14
"Vn_D0:pwr" 0.000000000000000e+00
"Vn_D1:v" 0.000000000000000e+00
"Vn_D1:i" -4.653010701864002e-13
"Vn_D1:pwr" -0.000000000000000e+00
"Vn_GND:v" 0.000000000000000e+00
"Vn_GND:i" 6.075187557903538e-10
"Vn_GND:pwr" 0.000000000000000e+00
"Vn_SD:v" 0.000000000000000e+00
"Vn_SD:i" -9.790769127340196e-13
"Vn_SD:pwr" -0.000000000000000e+00
"Vn_VDD:v" 1.200000000000000e+00
"Vn_VDD:i" -6.061394869034016e-10
"Vn_VDD:pwr" -7.273673842840820e-10
"Vn_Z:v" 0.000000000000000e+00
"Vn_Z:i" 9.961679057886913e-20
"Vn_Z:pwr" 0.000000000000000e+00
"n_Z" 1.410791757090706e-06
"n_D0" 0.000000000000000e+00
"n_D1" 1.200000000000000e+00
"n_SD" 1.200000000000000e+00
"Vn_D0:n" -6.510782928545146e-14
"Vn_D0:p" 6.510782928545146e-14
"Vn_D1:n" 4.653010701864002e-13
"Vn_D1:p" -4.653010701864002e-13
"Vn_GND:n" -6.075187557903538e-10
"Vn_GND:p" 6.075187557903538e-10
"Vn_SD:n" 9.790769127340196e-13
"Vn_SD:p" -9.790769127340196e-13
"Vn_VDD:n" 6.061394869034016e-10
"Vn_VDD:p" -6.061394869034016e-10
"Vn_Z:n" -9.961679057886913e-20
"Vn_Z:p" 9.961679057886913e-20
"time" 5.850000000000002e-10
"Vn_D0:v" 0.000000000000000e+00
"Vn_D0:i" 6.510784183840662e-14
"Vn_D0:pwr" 0.000000000000000e+00
"Vn_D1:v" 0.000000000000000e+00
"Vn_D1:i" -4.653009767471949e-13
"Vn_D1:pwr" -0.000000000000000e+00
"Vn_GND:v" 0.000000000000000e+00
"Vn_GND:i" 6.075187600592125e-10
"Vn_GND:pwr" 0.000000000000000e+00
"Vn_SD:v" 0.000000000000000e+00
"Vn_SD:i" -9.790768961672499e-13
"Vn_SD:pwr" -0.000000000000000e+00
"Vn_VDD:v" 1.200000000000000e+00
"Vn_VDD:i" -6.061394861416089e-10
"Vn_VDD:pwr" -7.273673833699307e-10
"Vn_Z:v" 0.000000000000000e+00
"Vn_Z:i" 2.855565926936322e-19
"Vn_Z:pwr" 0.000000000000000e+00
"n_Z" 1.410791769108116e-06
"n_D0" 0.000000000000000e+00
"n_D1" 1.200000000000000e+00
"n_SD" 1.200000000000000e+00
"Vn_D0:n" -6.510784183840662e-14
"Vn_D0:p" 6.510784183840662e-14
"Vn_D1:n" 4.653009767471949e-13
"Vn_D1:p" -4.653009767471949e-13
"Vn_GND:n" -6.075187600592125e-10
"Vn_GND:p" 6.075187600592125e-10
"Vn_SD:n" 9.790768961672499e-13
"Vn_SD:p" -9.790768961672499e-13
"Vn_VDD:n" 6.061394861416089e-10
"Vn_VDD:p" -6.061394861416089e-10
"Vn_Z:n" -2.855565926936322e-19
"Vn_Z:p" 2.855565926936322e-19
"time" 1.209000000000000e-09
"Vn_D0:v" 0.000000000000000e+00
"Vn_D0:i" 6.510782429241885e-14
"Vn_D0:pwr" 0.000000000000000e+00
"Vn_D1:v" 0.000000000000000e+00
"Vn_D1:i" -4.653012732766985e-13
"Vn_D1:pwr" -0.000000000000000e+00
"Vn_GND:v" 0.000000000000000e+00
"Vn_GND:i" 6.075187541616425e-10
"Vn_GND:pwr" 0.000000000000000e+00
"Vn_SD:v" 0.000000000000000e+00
"Vn_SD:i" -9.790770037587103e-13
"Vn_SD:pwr" -0.000000000000000e+00
"Vn_VDD:v" 1.200000000000000e+00
"Vn_VDD:i" -6.061394883659568e-10
"Vn_VDD:pwr" -7.273673860391481e-10
"Vn_Z:v" 0.000000000000000e+00
"Vn_Z:i" -5.321000383072412e-19
"Vn_Z:pwr" -0.000000000000000e+00
"n_Z" 1.410791753723805e-06
"n_D0" 0.000000000000000e+00
"n_D1" 1.200000000000000e+00
"n_SD" 1.200000000000000e+00
"Vn_D0:n" -6.510782429241885e-14
"Vn_D0:p" 6.510782429241885e-14
"Vn_D1:n" 4.653012732766985e-13
"Vn_D1:p" -4.653012732766985e-13
"Vn_GND:n" -6.075187541616425e-10
"Vn_GND:p" 6.075187541616425e-10
"Vn_SD:n" 9.790770037587103e-13
"Vn_SD:p" -9.790770037587103e-13
"Vn_VDD:n" 6.061394883659568e-10
"Vn_VDD:p" -6.061394883659568e-10
"Vn_Z:n" 5.321000383072412e-19
"Vn_Z:p" -5.321000383072412e-19
"time" 1.989000000000000e-09
"Vn_D0:v" 0.000000000000000e+00
"Vn_D0:i" 6.510784116044963e-14
"Vn_D0:pwr" 0.000000000000000e+00
"Vn_D1:v" 0.000000000000000e+00
"Vn_D1:i" -4.653008712037283e-13
"Vn_D1:pwr" -0.000000000000000e+00
"Vn_GND:v" 0.000000000000000e+00
"Vn_GND:i" 6.075187601049833e-10
"Vn_GND:pwr" 0.000000000000000e+00
"Vn_SD:v" 0.000000000000000e+00
"Vn_SD:i" -9.790768355360356e-13
"Vn_SD:pwr" -0.000000000000000e+00
"Vn_VDD:v" 1.200000000000000e+00
"Vn_VDD:i" -6.061394853681309e-10
"Vn_VDD:pwr" -7.273673824417570e-10
"Vn_Z:v" 0.000000000000000e+00
"Vn_Z:i" 7.210513447813630e-19
"Vn_Z:pwr" 0.000000000000000e+00
"n_Z" 1.410791768462007e-06
"n_D0" 0.000000000000000e+00
"n_D1" 1.200000000000000e+00
"n_SD" 1.200000000000000e+00
"Vn_D0:n" -6.510784116044963e-14
"Vn_D0:p" 6.510784116044963e-14
"Vn_D1:n" 4.653008712037283e-13
"Vn_D1:p" -4.653008712037283e-13
"Vn_GND:n" -6.075187601049833e-10
"Vn_GND:p" 6.075187601049833e-10
"Vn_SD:n" 9.790768355360356e-13
"Vn_SD:p" -9.790768355360356e-13
"Vn_VDD:n" 6.061394853681309e-10
"Vn_VDD:p" -6.061394853681309e-10
"Vn_Z:n" -7.210513447813630e-19
"Vn_Z:p" 7.210513447813630e-19
"time" 2.769000000000001e-09
"Vn_D0:v" 0.000000000000000e+00
"Vn_D0:i" 6.510781980879476e-14
"Vn_D0:pwr" 0.000000000000000e+00
"Vn_D1:v" 0.000000000000000e+00
"Vn_D1:i" -4.653013130456101e-13
"Vn_D1:pwr" -0.000000000000000e+00
"Vn_GND:v" 0.000000000000000e+00
"Vn_GND:i" 6.075187544676838e-10
"Vn_GND:pwr" 0.000000000000000e+00
"Vn_SD:v" 0.000000000000000e+00
"Vn_SD:i" -9.790770537523469e-13
"Vn_SD:pwr" -0.000000000000000e+00
"Vn_VDD:v" 1.200000000000000e+00
"Vn_VDD:i" -6.061394887010803e-10
"Vn_VDD:pwr" -7.273673864412963e-10
"Vn_Z:v" 0.000000000000000e+00
"Vn_Z:i" -8.928655598475535e-19
"Vn_Z:pwr" -0.000000000000000e+00
"n_Z" 1.410791755060498e-06
"n_D0" 0.000000000000000e+00
"n_D1" 1.200000000000000e+00
"n_SD" 1.200000000000000e+00
"Vn_D0:n" -6.510781980879476e-14
"Vn_D0:p" 6.510781980879476e-14
"Vn_D1:n" 4.653013130456101e-13
"Vn_D1:p" -4.653013130456101e-13
"Vn_GND:n" -6.075187544676838e-10
"Vn_GND:p" 6.075187544676838e-10
"Vn_SD:n" 9.790770537523469e-13
"Vn_SD:p" -9.790770537523469e-13
"Vn_VDD:n" 6.061394887010803e-10
"Vn_VDD:p" -6.061394887010803e-10
"Vn_Z:n" 8.928655598475535e-19
"Vn_Z:p" -8.928655598475535e-19
"time" 3.000000000000000e-09
"Vn_D0:v" 0.000000000000000e+00
"Vn_D0:i" 6.510784092100253e-14
"Vn_D0:pwr" 0.000000000000000e+00
"Vn_D1:v" 0.000000000000000e+00
"Vn_D1:i" -4.653007388372180e-13
"Vn_D1:pwr" -0.000000000000000e+00
"Vn_GND:v" 0.000000000000000e+00
"Vn_GND:i" 6.075187570957293e-10
"Vn_GND:pwr" 0.000000000000000e+00
"Vn_SD:v" 0.000000000000000e+00
"Vn_SD:i" -9.790767833577799e-13
"Vn_SD:pwr" -0.000000000000000e+00
"Vn_VDD:v" 1.200000000000000e+00
"Vn_VDD:i" -6.061394843963795e-10
"Vn_VDD:pwr" -7.273673812756555e-10
"Vn_Z:v" 0.000000000000000e+00
"Vn_Z:i" 1.075853946708201e-18
"Vn_Z:pwr" 0.000000000000000e+00
"n_Z" 1.410791759287530e-06
"n_D0" 0.000000000000000e+00
"n_D1" 1.200000000000000e+00
"n_SD" 1.200000000000000e+00
"Vn_D0:n" -6.510784092100253e-14
"Vn_D0:p" 6.510784092100253e-14
"Vn_D1:n" 4.653007388372180e-13
"Vn_D1:p" -4.653007388372180e-13
"Vn_GND:n" -6.075187570957293e-10
"Vn_GND:p" 6.075187570957293e-10
"Vn_SD:n" 9.790767833577799e-13
"Vn_SD:p" -9.790767833577799e-13
"Vn_VDD:n" 6.061394843963795e-10
"Vn_VDD:p" -6.061394843963795e-10
"Vn_Z:n" -1.075853946708201e-18
"Vn_Z:p" 1.075853946708201e-18
"time" 3.000020850694444e-09
"Vn_D0:v" 0.000000000000000e+00
"Vn_D0:i" -6.871678921433156e-07
"Vn_D0:pwr" -0.000000000000000e+00
"Vn_D1:v" 0.000000000000000e+00
"Vn_D1:i" -1.273506158201677e-06
"Vn_D1:pwr" -0.000000000000000e+00
"Vn_GND:v" 0.000000000000000e+00
"Vn_GND:i" -7.687135475933094e-05
"Vn_GND:pwr" -0.000000000000000e+00
"Vn_SD:v" 0.000000000000000e+00
"Vn_SD:i" 1.963879391607405e-04
"Vn_SD:pwr" 0.000000000000000e+00
"Vn_VDD:v" 1.200000000000000e+00
"Vn_VDD:i" -1.081731126439916e-04
"Vn_VDD:pwr" -1.298077351727899e-04
"Vn_Z:v" 0.000000000000000e+00
"Vn_Z:i" -9.382797707139926e-06
"Vn_Z:pwr" -0.000000000000000e+00
"n_Z" -3.771677784539303e-05
"n_D0" 0.000000000000000e+00
"n_D1" 1.200000000000000e+00
"n_SD" 1.197497916666695e+00
"Vn_D0:n" 6.871678921433156e-07
"Vn_D0:p" -6.871678921433156e-07
"Vn_D1:n" 1.273506158201677e-06
"Vn_D1:p" -1.273506158201677e-06
"Vn_GND:n" 7.687135475933094e-05
"Vn_GND:p" -7.687135475933094e-05
"Vn_SD:n" -1.963879391607405e-04
"Vn_SD:p" 1.963879391607405e-04
"Vn_VDD:n" 1.081731126439916e-04
"Vn_VDD:p" -1.081731126439916e-04
"Vn_Z:n" 9.382797707139926e-06
"Vn_Z:p" -9.382797707139926e-06
"time" 3.000062552083333e-09
"Vn_D0:v" 0.000000000000000e+00
"Vn_D0:i" -1.979749046663698e-06
"Vn_D0:pwr" -0.000000000000000e+00
"Vn_D1:v" 0.000000000000000e+00
"Vn_D1:i" -3.417236596415269e-06
"Vn_D1:pwr" -0.000000000000000e+00
"Vn_GND:v" 0.000000000000000e+00
"Vn_GND:i" -7.247169427061024e-05
"Vn_GND:pwr" -0.000000000000000e+00
"Vn_SD:v" 0.000000000000000e+00
"Vn_SD:i" 2.094780303326695e-04
"Vn_SD:pwr" 0.000000000000000e+00
"Vn_VDD:v" 1.200000000000000e+00
"Vn_VDD:i" -1.073770530517120e-04
"Vn_VDD:pwr" -1.288524636620544e-04
"Vn_Z:v" 0.000000000000000e+00
"Vn_Z:i" -2.423229736710069e-05
"Vn_Z:pwr" -0.000000000000000e+00
"n_Z" -1.778963930666007e-04
"n_D0" 0.000000000000000e+00
"n_D1" 1.200000000000000e+00
"n_SD" 1.192493750000085e+00
"Vn_D0:n" 1.979749046663698e-06
"Vn_D0:p" -1.979749046663698e-06
"Vn_D1:n" 3.417236596415269e-06
"Vn_D1:p" -3.417236596415269e-06
"Vn_GND:n" 7.247169427061024e-05
"Vn_GND:p" -7.247169427061024e-05
"Vn_SD:n" -2.094780303326695e-04
"Vn_SD:p" 2.094780303326695e-04
"Vn_VDD:n" 1.073770530517120e-04
"Vn_VDD:p" -1.073770530517120e-04
"Vn_Z:n" 2.423229736710069e-05
"Vn_Z:p" -2.423229736710069e-05
"time" 3.000145954861109e-09
"Vn_D0:v" 0.000000000000000e+00
"Vn_D0:i" -4.033736790976225e-06
"Vn_D0:pwr" -0.000000000000000e+00
"Vn_D1:v" 0.000000000000000e+00
"Vn_D1:i" -5.714669789466532e-06
"Vn_D1:pwr" -0.000000000000000e+00
"Vn_GND:v" 0.000000000000000e+00
"Vn_GND:i" -6.917881230390386e-05
"Vn_GND:pwr" -0.000000000000000e+00
"Vn_SD:v" 0.000000000000000e+00
"Vn_SD:i" 2.228401118188640e-04
"Vn_SD:pwr" 0.000000000000000e+00
"Vn_VDD:v" 1.200000000000000e+00
"Vn_VDD:i" -1.057743455273281e-04
"Vn_VDD:pwr" -1.269292146327937e-04
"Vn_Z:v" 0.000000000000000e+00
"Vn_Z:i" -3.813854740735832e-05
"Vn_Z:pwr" -0.000000000000000e+00
"n_Z" -6.980865637143835e-04
"n_D0" 0.000000000000000e+00
"n_D1" 1.200000000000000e+00
"n_SD" 1.182485416666864e+00
"Vn_D0:n" 4.033736790976225e-06
"Vn_D0:p" -4.033736790976225e-06
"Vn_D1:n" 5.714669789466532e-06
"Vn_D1:p" -5.714669789466532e-06
"Vn_GND:n" 6.917881230390386e-05
"Vn_GND:p" -6.917881230390386e-05
"Vn_SD:n" -2.228401118188640e-04
"Vn_SD:p" 2.228401118188640e-04
"Vn_VDD:n" 1.057743455273281e-04
"Vn_VDD:p" -1.057743455273281e-04
"Vn_Z:n" 3.813854740735832e-05
"Vn_Z:p" -3.813854740735832e-05
"time" 3.000312760416663e-09
"Vn_D0:v" 0.000000000000000e+00
"Vn_D0:i" -6.420229052520015e-06
"Vn_D0:pwr" -0.000000000000000e+00
"Vn_D1:v" 0.000000000000000e+00
"Vn_D1:i" -6.614366351491847e-06
"Vn_D1:pwr" -0.000000000000000e+00
"Vn_GND:v" 0.000000000000000e+00
"Vn_GND:i" -7.008053361383382e-05
"Vn_GND:pwr" -0.000000000000000e+00
"Vn_SD:v" 0.000000000000000e+00
"Vn_SD:i" 2.322058314040288e-04
"Vn_SD:pwr" 0.000000000000000e+00
"Vn_VDD:v" 1.200000000000000e+00
"Vn_VDD:i" -1.053821098341568e-04
"Vn_VDD:pwr" -1.264585318009882e-04
"Vn_Z:v" 0.000000000000000e+00
"Vn_Z:i" -4.370859255181399e-05
"Vn_Z:pwr" -0.000000000000000e+00
"n_Z" -2.063342328851296e-03
"n_D0" 0.000000000000000e+00
"n_D1" 1.200000000000000e+00
"n_SD" 1.162468750000424e+00
"Vn_D0:n" 6.420229052520015e-06
"Vn_D0:p" -6.420229052520015e-06
"Vn_D1:n" 6.614366351491847e-06
"Vn_D1:p" -6.614366351491847e-06
"Vn_GND:n" 7.008053361383382e-05
"Vn_GND:p" -7.008053361383382e-05
"Vn_SD:n" -2.322058314040288e-04
"Vn_SD:p" 2.322058314040288e-04
"Vn_VDD:n" 1.053821098341568e-04
"Vn_VDD:p" -1.053821098341568e-04
"Vn_Z:n" 4.370859255181399e-05
"Vn_Z:p" -4.370859255181399e-05
"time" 3.000565861772966e-09
"Vn_D0:v" 0.000000000000000e+00
"Vn_D0:i" -7.637758672209377e-06
"Vn_D0:pwr" -0.000000000000000e+00
"Vn_D1:v" 0.000000000000000e+00
"Vn_D1:i" -5.552093162827100e-06
"Vn_D1:pwr" -0.000000000000000e+00
"Vn_GND:v" 0.000000000000000e+00
"Vn_GND:i" -7.421268656311505e-05
"Vn_GND:pwr" -0.000000000000000e+00
"Vn_SD:v" 0.000000000000000e+00
"Vn_SD:i" 2.359598855895867e-04
"Vn_SD:pwr" 0.000000000000000e+00
"Vn_VDD:v" 1.200000000000000e+00
"Vn_VDD:i" -1.049874207369522e-04
"Vn_VDD:pwr" -1.259849048843427e-04
"Vn_Z:v" 0.000000000000000e+00
"Vn_Z:i" -4.356992645469501e-05
"Vn_Z:pwr" -0.000000000000000e+00
"n_Z" -4.272373482512857e-03
"n_D0" 0.000000000000000e+00
"n_D1" 1.200000000000000e+00
"n_SD" 1.132096587244132e+00
"Vn_D0:n" 7.637758672209377e-06
"Vn_D0:p" -7.637758672209377e-06
"Vn_D1:n" 5.552093162827100e-06
"Vn_D1:p" -5.552093162827100e-06
"Vn_GND:n" 7.421268656311505e-05
"Vn_GND:p" -7.421268656311505e-05
"Vn_SD:n" -2.359598855895867e-04
"Vn_SD:p" 2.359598855895867e-04
"Vn_VDD:n" 1.049874207369522e-04
"Vn_VDD:p" -1.049874207369522e-04
"Vn_Z:n" 4.356992645469501e-05
"Vn_Z:p" -4.356992645469501e-05
"time" 3.000933643203660e-09
"Vn_D0:v" 0.000000000000000e+00
"Vn_D0:i" -7.675434274163048e-06
"Vn_D0:pwr" -0.000000000000000e+00
"Vn_D1:v" 0.000000000000000e+00
"Vn_D1:i" -4.240480288151766e-06
"Vn_D1:pwr" -0.000000000000000e+00
"Vn_GND:v" 0.000000000000000e+00
"Vn_GND:i" -7.939509568467001e-05
"Vn_GND:pwr" -0.000000000000000e+00
"Vn_SD:v" 0.000000000000000e+00
"Vn_SD:i" 2.382197813021574e-04
"Vn_SD:pwr" 0.000000000000000e+00
"Vn_VDD:v" 1.200000000000000e+00
"Vn_VDD:i" -1.030167467711131e-04
"Vn_VDD:pwr" -1.236200961253357e-04
"Vn_Z:v" 0.000000000000000e+00
"Vn_Z:i" -4.389202428384396e-05
"Vn_Z:pwr" -0.000000000000000e+00
"n_Z" -7.489061619908833e-03
"n_D0" 0.000000000000000e+00
"n_D1" 1.200000000000000e+00
"n_SD" 1.087962815560781e+00
"Vn_D0:n" 7.675434274163048e-06
"Vn_D0:p" -7.675434274163048e-06
"Vn_D1:n" 4.240480288151766e-06
"Vn_D1:p" -4.240480288151766e-06
"Vn_GND:n" 7.939509568467001e-05
"Vn_GND:p" -7.939509568467001e-05
"Vn_SD:n" -2.382197813021574e-04
"Vn_SD:p" 2.382197813021574e-04
"Vn_VDD:n" 1.030167467711131e-04
"Vn_VDD:p" -1.030167467711131e-04
"Vn_Z:n" 4.389202428384396e-05
"Vn_Z:p" -4.389202428384396e-05
"time" 3.001542887646894e-09
"Vn_D0:v" 0.000000000000000e+00
"Vn_D0:i" -7.063261485932795e-06
"Vn_D0:pwr" -0.000000000000000e+00
"Vn_D1:v" 0.000000000000000e+00
"Vn_D1:i" -3.001437849124525e-06
"Vn_D1:pwr" -0.000000000000000e+00
"Vn_GND:v" 0.000000000000000e+00
"Vn_GND:i" -8.636973497911952e-05
"Vn_GND:pwr" -0.000000000000000e+00
"Vn_SD:v" 0.000000000000000e+00
"Vn_SD:i" 2.405435615998054e-04
"Vn_SD:pwr" 0.000000000000000e+00
"Vn_VDD:v" 1.200000000000000e+00
"Vn_VDD:i" -1.008036314857364e-04
"Vn_VDD:pwr" -1.209643577828837e-04
"Vn_Z:v" 0.000000000000000e+00
"Vn_Z:i" -4.330549580010240e-05
"Vn_Z:pwr" -0.000000000000000e+00
"n_Z" -1.280152207740306e-02
"n_D0" 0.000000000000000e+00
"n_D1" 1.200000000000000e+00
"n_SD" 1.014853482372685e+00
"Vn_D0:n" 7.063261485932795e-06
"Vn_D0:p" -7.063261485932795e-06
"Vn_D1:n" 3.001437849124525e-06
"Vn_D1:p" -3.001437849124525e-06
"Vn_GND:n" 8.636973497911952e-05
"Vn_GND:p" -8.636973497911952e-05
"Vn_SD:n" -2.405435615998054e-04
"Vn_SD:p" 2.405435615998054e-04
"Vn_VDD:n" 1.008036314857364e-04
"Vn_VDD:p" -1.008036314857364e-04
"Vn_Z:n" 4.330549580010240e-05
"Vn_Z:p" -4.330549580010240e-05
"time" 3.002655064545828e-09
"Vn_D0:v" 0.000000000000000e+00
"Vn_D0:i" -6.347203618337596e-06
"Vn_D0:pwr" -0.000000000000000e+00
"Vn_D1:v" 0.000000000000000e+00
"Vn_D1:i" -2.065399900506918e-06
"Vn_D1:pwr" -0.000000000000000e+00
"Vn_GND:v" 0.000000000000000e+00
"Vn_GND:i" -9.480186415065230e-05
"Vn_GND:pwr" -0.000000000000000e+00
"Vn_SD:v" 0.000000000000000e+00
"Vn_SD:i" 2.472779857637465e-04
"Vn_SD:pwr" 0.000000000000000e+00
"Vn_VDD:v" 1.200000000000000e+00
"Vn_VDD:i" -1.015090136246883e-04
"Vn_VDD:pwr" -1.218108163496259e-04
"Vn_Z:v" 0.000000000000000e+00
"Vn_Z:i" -4.255450446934969e-05
"Vn_Z:pwr" -0.000000000000000e+00
"n_Z" -2.235067296161650e-02
"n_D0" 0.000000000000000e+00
"n_D1" 1.200000000000000e+00
"n_SD" 8.813922545006314e-01
"Vn_D0:n" 6.347203618337596e-06
"Vn_D0:p" -6.347203618337596e-06
"Vn_D1:n" 2.065399900506918e-06
"Vn_D1:p" -2.065399900506918e-06
"Vn_GND:n" 9.480186415065230e-05
"Vn_GND:p" -9.480186415065230e-05
"Vn_SD:n" -2.472779857637465e-04
"Vn_SD:p" 2.472779857637465e-04
"Vn_VDD:n" 1.015090136246883e-04
"Vn_VDD:p" -1.015090136246883e-04
"Vn_Z:n" 4.255450446934969e-05
"Vn_Z:p" -4.255450446934969e-05
"time" 3.004113706407333e-09
"Vn_D0:v" 0.000000000000000e+00
"Vn_D0:i" -8.325894400385325e-06
"Vn_D0:pwr" -0.000000000000000e+00
"Vn_D1:v" 0.000000000000000e+00
"Vn_D1:i" -1.687132608508436e-06
"Vn_D1:pwr" -0.000000000000000e+00
"Vn_GND:v" 0.000000000000000e+00
"Vn_GND:i" -1.005176464692380e-04
"Vn_GND:pwr" -0.000000000000000e+00
"Vn_SD:v" 0.000000000000000e+00
"Vn_SD:i" 2.962566147006631e-04
"Vn_SD:pwr" 0.000000000000000e+00
"Vn_VDD:v" 1.200000000000000e+00
"Vn_VDD:i" -1.411601340082591e-04
"Vn_VDD:pwr" -1.693921608099109e-04
"Vn_Z:v" 0.000000000000000e+00
"Vn_Z:i" -4.456580721448273e-05
"Vn_Z:pwr" -0.000000000000000e+00
"n_Z" -3.505840632255921e-02
"n_D0" 0.000000000000000e+00
"n_D1" 1.200000000000000e+00
"n_SD" 7.063552311199988e-01
"Vn_D0:n" 8.325894400385325e-06
"Vn_D0:p" -8.325894400385325e-06
"Vn_D1:n" 1.687132608508436e-06
"Vn_D1:p" -1.687132608508436e-06
"Vn_GND:n" 1.005176464692380e-04
"Vn_GND:p" -1.005176464692380e-04
"Vn_SD:n" -2.962566147006631e-04
"Vn_SD:p" 2.962566147006631e-04
"Vn_VDD:n" 1.411601340082591e-04
"Vn_VDD:p" -1.411601340082591e-04
"Vn_Z:n" 4.456580721448273e-05
"Vn_Z:p" -4.456580721448273e-05
"time" 3.006044339959508e-09
"Vn_D0:v" 0.000000000000000e+00
"Vn_D0:i" -1.276988663449309e-05
"Vn_D0:pwr" -0.000000000000000e+00
"Vn_D1:v" 0.000000000000000e+00
"Vn_D1:i" -1.026244692913968e-06
"Vn_D1:pwr" -0.000000000000000e+00
"Vn_GND:v" 0.000000000000000e+00
"Vn_GND:i" -8.325307817401937e-05
"Vn_GND:pwr" -0.000000000000000e+00
"Vn_SD:v" 0.000000000000000e+00
"Vn_SD:i" 3.126520097704756e-04
"Vn_SD:pwr" 0.000000000000000e+00
"Vn_VDD:v" 1.200000000000000e+00
"Vn_VDD:i" -1.858612178365218e-04
"Vn_VDD:pwr" -2.230334614038262e-04
"Vn_Z:v" 0.000000000000000e+00
"Vn_Z:i" -2.974158243231746e-05
"Vn_Z:pwr" -0.000000000000000e+00
"n_Z" -4.940444028522355e-02
"n_D0" 0.000000000000000e+00
"n_D1" 1.200000000000000e+00
"n_SD" 4.746792048590190e-01
"Vn_D0:n" 1.276988663449309e-05
"Vn_D0:p" -1.276988663449309e-05
"Vn_D1:n" 1.026244692913968e-06
"Vn_D1:p" -1.026244692913968e-06
"Vn_GND:n" 8.325307817401937e-05
"Vn_GND:p" -8.325307817401937e-05
"Vn_SD:n" -3.126520097704756e-04
"Vn_SD:p" 3.126520097704756e-04
"Vn_VDD:n" 1.858612178365218e-04
"Vn_VDD:p" -1.858612178365218e-04
"Vn_Z:n" 2.974158243231746e-05
"Vn_Z:p" -2.974158243231746e-05
"time" 3.008412700286338e-09
"Vn_D0:v" 0.000000000000000e+00
"Vn_D0:i" -1.790364531507984e-05
"Vn_D0:pwr" -0.000000000000000e+00
"Vn_D1:v" 0.000000000000000e+00
"Vn_D1:i" 2.313420376245421e-06
"Vn_D1:pwr" 0.000000000000000e+00
"Vn_GND:v" 0.000000000000000e+00
"Vn_GND:i" -3.845933942075483e-05
"Vn_GND:pwr" -0.000000000000000e+00
"Vn_SD:v" 0.000000000000000e+00
"Vn_SD:i" 2.867745289497573e-04
"Vn_SD:pwr" 0.000000000000000e+00
"Vn_VDD:v" 1.200000000000000e+00
"Vn_VDD:i" -2.510835989266053e-04
"Vn_VDD:pwr" -3.013003187119264e-04
"Vn_Z:v" 0.000000000000000e+00
"Vn_Z:i" 1.835863433622685e-05
"Vn_Z:pwr" 0.000000000000000e+00
"n_Z" -5.210033255253794e-02
"n_D0" 0.000000000000000e+00
"n_D1" 1.200000000000000e+00
"n_SD" 1.904759656394468e-01
"Vn_D0:n" 1.790364531507984e-05
"Vn_D0:p" -1.790364531507984e-05
"Vn_D1:n" -2.313420376245421e-06
"Vn_D1:p" 2.313420376245421e-06
"Vn_GND:n" 3.845933942075483e-05
"Vn_GND:p" -3.845933942075483e-05
"Vn_SD:n" -2.867745289497573e-04
"Vn_SD:p" 2.867745289497573e-04
"Vn_VDD:n" 2.510835989266053e-04
"Vn_VDD:p" -2.510835989266053e-04
"Vn_Z:n" -1.835863433622685e-05
"Vn_Z:p" 1.835863433622685e-05
"time" 3.009206350143169e-09
"Vn_D0:v" 0.000000000000000e+00
"Vn_D0:i" -1.952805944162035e-05
"Vn_D0:pwr" -0.000000000000000e+00
"Vn_D1:v" 0.000000000000000e+00
"Vn_D1:i" 2.348458750818974e-06
"Vn_D1:pwr" 0.000000000000000e+00
"Vn_GND:v" 0.000000000000000e+00
"Vn_GND:i" -1.147002854088288e-05
"Vn_GND:pwr" -0.000000000000000e+00
"Vn_SD:v" 0.000000000000000e+00
"Vn_SD:i" 2.651267089487884e-04
"Vn_SD:pwr" 0.000000000000000e+00
"Vn_VDD:v" 1.200000000000000e+00
"Vn_VDD:i" -2.706179172346758e-04
"Vn_VDD:pwr" -3.247415006816109e-04
"Vn_Z:v" 0.000000000000000e+00
"Vn_Z:i" 3.414083751777973e-05
"Vn_Z:pwr" 0.000000000000000e+00
"n_Z" -4.793371272047418e-02
"n_D0" 0.000000000000000e+00
"n_D1" 1.200000000000000e+00
"n_SD" 9.523798281972340e-02
"Vn_D0:n" 1.952805944162035e-05
"Vn_D0:p" -1.952805944162035e-05
"Vn_D1:n" -2.348458750818974e-06
"Vn_D1:p" 2.348458750818974e-06
"Vn_GND:n" 1.147002854088288e-05
"Vn_GND:p" -1.147002854088288e-05
"Vn_SD:n" -2.651267089487884e-04
"Vn_SD:p" 2.651267089487884e-04
"Vn_VDD:n" 2.706179172346758e-04
"Vn_VDD:p" -2.706179172346758e-04
"Vn_Z:n" -3.414083751777973e-05
"Vn_Z:p" 3.414083751777973e-05
"time" 3.010000000000000e-09
"Vn_D0:v" 0.000000000000000e+00
"Vn_D0:i" -2.049532513443664e-05
"Vn_D0:pwr" -0.000000000000000e+00
"Vn_D1:v" 0.000000000000000e+00
"Vn_D1:i" 1.883414995115805e-06
"Vn_D1:pwr" 0.000000000000000e+00
"Vn_GND:v" 0.000000000000000e+00
"Vn_GND:i" -2.220042784506254e-05
"Vn_GND:pwr" -0.000000000000000e+00
"Vn_SD:v" 0.000000000000000e+00
"Vn_SD:i" 2.892903452210538e-04
"Vn_SD:pwr" 0.000000000000000e+00
"Vn_VDD:v" 1.200000000000000e+00
"Vn_VDD:i" -2.958508803827654e-04
"Vn_VDD:pwr" -3.550210564593185e-04
"Vn_Z:v" 0.000000000000000e+00
"Vn_Z:i" 4.737287314588140e-05
"Vn_Z:pwr" 0.000000000000000e+00
"n_Z" -4.146437824067601e-02
"n_D0" 0.000000000000000e+00
"n_D1" 1.200000000000000e+00
"n_SD" 0.000000000000000e+00
"Vn_D0:n" 2.049532513443664e-05
"Vn_D0:p" -2.049532513443664e-05
"Vn_D1:n" -1.883414995115805e-06
"Vn_D1:p" 1.883414995115805e-06
"Vn_GND:n" 2.220042784506254e-05
"Vn_GND:p" -2.220042784506254e-05
"Vn_SD:n" -2.892903452210538e-04
"Vn_SD:p" 2.892903452210538e-04
"Vn_VDD:n" 2.958508803827654e-04
"Vn_VDD:p" -2.958508803827654e-04
"Vn_Z:n" -4.737287314588140e-05
"Vn_Z:p" 4.737287314588140e-05
"time" 3.010083402777778e-09
"Vn_D0:v" 0.000000000000000e+00
"Vn_D0:i" -1.703765175681939e-05
"Vn_D0:pwr" -0.000000000000000e+00
"Vn_D1:v" 0.000000000000000e+00
"Vn_D1:i" 3.976151920773439e-06
"Vn_D1:pwr" 0.000000000000000e+00
"Vn_GND:v" 0.000000000000000e+00
"Vn_GND:i" 4.052993784988283e-05
"Vn_GND:pwr" 0.000000000000000e+00
"Vn_SD:v" 0.000000000000000e+00
"Vn_SD:i" 4.809515315196150e-05
"Vn_SD:pwr" 0.000000000000000e+00
"Vn_VDD:v" 1.200000000000000e+00
"Vn_VDD:i" -1.492260865096415e-04
"Vn_VDD:pwr" -1.790713038115698e-04
"Vn_Z:v" 0.000000000000000e+00
"Vn_Z:i" 7.366249534385995e-05
"Vn_Z:pwr" 0.000000000000000e+00
"n_Z" -4.023564689473357e-02
"n_D0" 0.000000000000000e+00
"n_D1" 1.200000000000000e+00
"n_SD" 0.000000000000000e+00
"Vn_D0:n" 1.703765175681939e-05
"Vn_D0:p" -1.703765175681939e-05
"Vn_D1:n" -3.976151920773439e-06
"Vn_D1:p" 3.976151920773439e-06
"Vn_GND:n" -4.052993784988283e-05
"Vn_GND:p" 4.052993784988283e-05
"Vn_SD:n" -4.809515315196150e-05
"Vn_SD:p" 4.809515315196150e-05
"Vn_VDD:n" 1.492260865096415e-04
"Vn_VDD:p" -1.492260865096415e-04
"Vn_Z:n" -7.366249534385995e-05
"Vn_Z:p" 7.366249534385995e-05
"time" 3.010250208333333e-09
"Vn_D0:v" 0.000000000000000e+00
"Vn_D0:i" -1.186070859457628e-05
"Vn_D0:pwr" -0.000000000000000e+00
"Vn_D1:v" 0.000000000000000e+00
"Vn_D1:i" 6.107750680726836e-06
"Vn_D1:pwr" 0.000000000000000e+00
"Vn_GND:v" 0.000000000000000e+00
"Vn_GND:i" 4.075979053814059e-05
"Vn_GND:pwr" 0.000000000000000e+00
"Vn_SD:v" 0.000000000000000e+00