HEADER
"PSFversion" "1.00"
"simulator" "spectre"
"version" "10.1.1.164.isr11"
"date" "3:01:57 PM, Fri Oct 17, 2014"
"design" "* Spectre Timing Acquisition"
"analysis type" "tran"
"analysis name" "transient1-000_transient1"
"analysis description" "Transient Analysis `transient1-000_transient1': time = (0 s -> 39 ns)"
"xVecSorted" "ascending"
"tolerance.relative" 0.00100000
"start" 0.00000
"outputstart" 0.00000
"stop" 3.90000e-08
"step" 3.90000e-11
"maxstep" 7.80000e-10
"ic" "all"
"useprevic" "no"
"skipdc" "no"
"reltol" 0.00100000
"abstol(V)" 1.00000e-06
"abstol(I)" 1.00000e-12
"temp" 25.0000
"tnom" 27.0000
"tempeffects" "all"
"errpreset" "moderate"
"method" "traponly"
"lteratio" 3.50000
"relref" "sigglobal"
"cmin" 0.00000
"gmin" 1.00000e-12
TYPE
"sweep" FLOAT DOUBLE PROP(
"key" "sweep"
)
"Tau" FLOAT DOUBLE PROP(
"units" "N*m"
"key" "node"
"tolerance" 1.00000e-06
)
"Alpha" FLOAT DOUBLE PROP(
"units" "rads/s^2"
"key" "node"
"tolerance" 1.00000e-06
)
"Omega" FLOAT DOUBLE PROP(
"units" "rads/s"
"key" "node"
"tolerance" 1.00000e-06
)
"Theta" FLOAT DOUBLE PROP(
"units" "rads"
"key" "node"
"tolerance" 1.00000e-06
)
"F" FLOAT DOUBLE PROP(
"units" "N"
"key" "node"
"tolerance" 1.00000e-06
)
"Imp" FLOAT DOUBLE PROP(
"units" "m/s^3"
"key" "node"
"tolerance" 1.00000e-06
)
"Acc" FLOAT DOUBLE PROP(
"units" "m/s^2"
"key" "node"
"tolerance" 1.00000e-06
)
"Vel" FLOAT DOUBLE PROP(
"units" "m/s"
"key" "node"
"tolerance" 1.00000e-06
)
"Pos" FLOAT DOUBLE PROP(
"units" "m"
"key" "node"
"tolerance" 1.00000e-06
)
"Phi" FLOAT DOUBLE PROP(
"units" "Wb"
"key" "node"
"tolerance" 1.00000e-09
)
"Q" FLOAT DOUBLE PROP(
"units" "coul"
"key" "node"
"tolerance" 1.00000e-14
)
"V" FLOAT DOUBLE PROP(
"units" "V"
"key" "node"
"tolerance" 1.00000e-06
)
"I" FLOAT DOUBLE PROP(
"units" "A"
"key" "branch"
"tolerance" 1.00000e-12
)
"MMF" FLOAT DOUBLE PROP(
"units" "A*turn"
"key" "node"
"tolerance" 1.00000e-12
)
"Wb" FLOAT DOUBLE PROP(
"units" "Wb"
"key" "node"
"tolerance" 1.00000e-09
)
"Temp" FLOAT DOUBLE PROP(
"units" "C"
"key" "node"
"tolerance" 0.000100000
)
"Pwr" FLOAT DOUBLE PROP(
"units" "W"
"key" "node"
"tolerance" 1.00000e-09
)
"U" FLOAT DOUBLE PROP(
"units" ""
"key" "node"
"tolerance" 1.00000e-06
)
"V/Sec" FLOAT DOUBLE PROP(
"units" "V/s"
"key" "node"
"tolerance" 0.000100000
)
"I/Sec" FLOAT DOUBLE PROP(
"units" "A/s"
"key" "node"
"tolerance" 1.00000e-06
)
"1/Sec" FLOAT DOUBLE PROP(
"units" "1/s"
"key" "node"
"tolerance" 0.000100000
)
"HOD" FLOAT DOUBLE PROP(
"units" ""
"key" "node"
"tolerance" 0.0100000
)
"A" FLOAT DOUBLE PROP(
"key" "inst"
)
"W" FLOAT DOUBLE PROP(
"key" "inst"
)
SWEEP
"time" "sweep" PROP(
"sweep_direction" 0
"units" "s"
"plot" 0
"grid" 1
)
TRACE
"Vn_D1:v" "V" PROP(
"units" "V"
)
"Vn_D1:i" "A" PROP(
"units" "A"
)
"Vn_D1:pwr" "W" PROP(
"units" "W"
)
"Vn_GND:v" "V" PROP(
"units" "V"
)
"Vn_GND:i" "A" PROP(
"units" "A"
)
"Vn_GND:pwr" "W" PROP(
"units" "W"
)
"Vn_SD:v" "V" PROP(
"units" "V"
)
"Vn_SD:i" "A" PROP(
"units" "A"
)
"Vn_SD:pwr" "W" PROP(
"units" "W"
)
"Vn_VDD:v" "V" PROP(
"units" "V"
)
"Vn_VDD:i" "A" PROP(
"units" "A"
)
"Vn_VDD:pwr" "W" PROP(
"units" "W"
)
"Vn_Z:v" "V" PROP(
"units" "V"
)
"Vn_Z:i" "A" PROP(
"units" "A"
)
"Vn_Z:pwr" "W" PROP(
"units" "W"
)
"n_Z" "V"
"n_D1" "V"
"n_SD" "V"
"Vn_D1:n" "I"
"Vn_D1:p" "I"
"Vn_GND:n" "I"
"Vn_GND:p" "I"
"Vn_SD:n" "I"
"Vn_SD:p" "I"
"Vn_VDD:n" "I"
"Vn_VDD:p" "I"
"Vn_Z:n" "I"
"Vn_Z:p" "I"
VALUE
"time" 0.000000000000000e+00
"Vn_D1:v" 0.000000000000000e+00
"Vn_D1:i" 7.517119452868265e-14
"Vn_D1:pwr" 0.000000000000000e+00
"Vn_GND:v" 0.000000000000000e+00
"Vn_GND:i" 2.548493107915353e-10
"Vn_GND:pwr" 0.000000000000000e+00
"Vn_SD:v" 0.000000000000000e+00
"Vn_SD:i" -5.105704018311278e-13
"Vn_SD:pwr" -0.000000000000000e+00
"Vn_VDD:v" 1.200000000000000e+00
"Vn_VDD:i" -2.544688430804969e-10
"Vn_VDD:pwr" -3.053626116965962e-10
"Vn_Z:v" 0.000000000000000e+00
"Vn_Z:i" 0.000000000000000e+00
"Vn_Z:pwr" 0.000000000000000e+00
"n_Z" 1.199999494927445e+00
"n_D1" 0.000000000000000e+00
"n_SD" 1.200000000000000e+00
"Vn_D1:n" -7.517119452868265e-14
"Vn_D1:p" 7.517119452868265e-14
"Vn_GND:n" -2.548493107915353e-10
"Vn_GND:p" 2.548493107915353e-10
"Vn_SD:n" 5.105704018311278e-13
"Vn_SD:p" -5.105704018311278e-13
"Vn_VDD:n" 2.544688430804969e-10
"Vn_VDD:p" -2.544688430804969e-10
"Vn_Z:n" 0.000000000000000e+00
"Vn_Z:p" 0.000000000000000e+00
"time" 3.900000000000000e-11
"Vn_D1:v" 0.000000000000000e+00
"Vn_D1:i" 7.484300250772189e-14
"Vn_D1:pwr" 0.000000000000000e+00
"Vn_GND:v" 0.000000000000000e+00
"Vn_GND:i" 2.548642412389319e-10
"Vn_GND:pwr" 0.000000000000000e+00
"Vn_SD:v" 0.000000000000000e+00
"Vn_SD:i" -5.109881725486536e-13
"Vn_SD:pwr" -0.000000000000000e+00
"Vn_VDD:v" 1.200000000000000e+00
"Vn_VDD:i" -2.544791788473170e-10
"Vn_VDD:pwr" -3.053750146167805e-10
"Vn_Z:v" 0.000000000000000e+00
"Vn_Z:i" -3.848717234782607e-15
"Vn_Z:pwr" -0.000000000000000e+00
"n_Z" 1.199999494887945e+00
"n_D1" 0.000000000000000e+00
"n_SD" 1.200000000000000e+00
"Vn_D1:n" -7.484300250772189e-14
"Vn_D1:p" 7.484300250772189e-14
"Vn_GND:n" -2.548642412389319e-10
"Vn_GND:p" 2.548642412389319e-10
"Vn_SD:n" 5.109881725486536e-13
"Vn_SD:p" -5.109881725486536e-13
"Vn_VDD:n" 2.544791788473170e-10
"Vn_VDD:p" -2.544791788473170e-10
"Vn_Z:n" 3.848717234782607e-15
"Vn_Z:p" -3.848717234782607e-15
"time" 1.170000000000000e-10
"Vn_D1:v" 0.000000000000000e+00
"Vn_D1:i" 7.504931318667218e-14
"Vn_D1:pwr" 0.000000000000000e+00
"Vn_GND:v" 0.000000000000000e+00
"Vn_GND:i" 2.548657021403964e-10
"Vn_GND:pwr" 0.000000000000000e+00
"Vn_SD:v" 0.000000000000000e+00
"Vn_SD:i" -5.107071318463879e-13
"Vn_SD:pwr" -0.000000000000000e+00
"Vn_VDD:v" 1.200000000000000e+00
"Vn_VDD:i" -2.544838223602921e-10
"Vn_VDD:pwr" -3.053805868323505e-10
"Vn_Z:v" 0.000000000000000e+00
"Vn_Z:i" -1.153453929298864e-15
"Vn_Z:pwr" -0.000000000000000e+00
"n_Z" 1.199999494864268e+00
"n_D1" 0.000000000000000e+00
"n_SD" 1.200000000000000e+00
"Vn_D1:n" -7.504931318667218e-14
"Vn_D1:p" 7.504931318667218e-14
"Vn_GND:n" -2.548657021403964e-10
"Vn_GND:p" 2.548657021403964e-10
"Vn_SD:n" 5.107071318463879e-13
"Vn_SD:p" -5.107071318463879e-13
"Vn_VDD:n" 2.544838223602921e-10
"Vn_VDD:p" -2.544838223602921e-10
"Vn_Z:n" 1.153453929298864e-15
"Vn_Z:p" -1.153453929298864e-15
"time" 2.730000000000000e-10
"Vn_D1:v" 0.000000000000000e+00
"Vn_D1:i" 7.521724743624069e-14
"Vn_D1:pwr" 0.000000000000000e+00
"Vn_GND:v" 0.000000000000000e+00
"Vn_GND:i" 2.548665524476050e-10
"Vn_GND:pwr" 0.000000000000000e+00
"Vn_SD:v" 0.000000000000000e+00
"Vn_SD:i" -5.105180336452540e-13
"Vn_SD:pwr" -0.000000000000000e+00
"Vn_VDD:v" 1.200000000000000e+00
"Vn_VDD:i" -2.544866380336068e-10
"Vn_VDD:pwr" -3.053839656403281e-10
"Vn_Z:v" 0.000000000000000e+00
"Vn_Z:i" 4.518575758207071e-16
"Vn_Z:pwr" 0.000000000000000e+00
"n_Z" 1.199999494849867e+00
"n_D1" 0.000000000000000e+00
"n_SD" 1.200000000000000e+00
"Vn_D1:n" -7.521724743624069e-14
"Vn_D1:p" 7.521724743624069e-14
"Vn_GND:n" -2.548665524476050e-10
"Vn_GND:p" 2.548665524476050e-10
"Vn_SD:n" 5.105180336452540e-13
"Vn_SD:p" -5.105180336452540e-13
"Vn_VDD:n" 2.544866380336068e-10
"Vn_VDD:p" -2.544866380336068e-10
"Vn_Z:n" -4.518575758207071e-16
"Vn_Z:p" 4.518575758207071e-16
"time" 5.850000000000002e-10
"Vn_D1:v" 0.000000000000000e+00
"Vn_D1:i" 7.514279455615818e-14
"Vn_D1:pwr" 0.000000000000000e+00
"Vn_GND:v" 0.000000000000000e+00
"Vn_GND:i" 2.548661386497076e-10
"Vn_GND:pwr" 0.000000000000000e+00
"Vn_SD:v" 0.000000000000000e+00
"Vn_SD:i" -5.106031449955998e-13
"Vn_SD:pwr" -0.000000000000000e+00
"Vn_VDD:v" 1.200000000000000e+00
"Vn_VDD:i" -2.544853179291713e-10
"Vn_VDD:pwr" -3.053823815150056e-10
"Vn_Z:v" 0.000000000000000e+00
"Vn_Z:i" -2.881563036779553e-16
"Vn_Z:pwr" -0.000000000000000e+00
"n_Z" 1.199999494856588e+00
"n_D1" 0.000000000000000e+00
"n_SD" 1.200000000000000e+00
"Vn_D1:n" -7.514279455615818e-14
"Vn_D1:p" 7.514279455615818e-14
"Vn_GND:n" -2.548661386497076e-10
"Vn_GND:p" 2.548661386497076e-10
"Vn_SD:n" 5.106031449955998e-13
"Vn_SD:p" -5.106031449955998e-13
"Vn_VDD:n" 2.544853179291713e-10
"Vn_VDD:p" -2.544853179291713e-10
"Vn_Z:n" 2.881563036779553e-16
"Vn_Z:p" -2.881563036779553e-16
"time" 1.209000000000000e-09
"Vn_D1:v" 0.000000000000000e+00
"Vn_D1:i" 7.519367413179376e-14
"Vn_D1:pwr" 0.000000000000000e+00
"Vn_GND:v" 0.000000000000000e+00
"Vn_GND:i" 2.548663801998619e-10
"Vn_GND:pwr" 0.000000000000000e+00
"Vn_SD:v" 0.000000000000000e+00
"Vn_SD:i" -5.105442069948385e-13
"Vn_SD:pwr" -0.000000000000000e+00
"Vn_VDD:v" 1.200000000000000e+00
"Vn_VDD:i" -2.544861943595052e-10
"Vn_VDD:pwr" -3.053834332314062e-10
"Vn_Z:v" 0.000000000000000e+00
"Vn_Z:i" 2.332961770263312e-16
"Vn_Z:pwr" 0.000000000000000e+00
"n_Z" 1.199999494852084e+00
"n_D1" 0.000000000000000e+00
"n_SD" 1.200000000000000e+00
"Vn_D1:n" -7.519367413179376e-14
"Vn_D1:p" 7.519367413179376e-14
"Vn_GND:n" -2.548663801998619e-10
"Vn_GND:p" 2.548663801998619e-10
"Vn_SD:n" 5.105442069948385e-13
"Vn_SD:p" -5.105442069948385e-13
"Vn_VDD:n" 2.544861943595052e-10
"Vn_VDD:p" -2.544861943595052e-10
"Vn_Z:n" -2.332961770263312e-16
"Vn_Z:p" 2.332961770263312e-16
"time" 1.989000000000000e-09
"Vn_D1:v" 0.000000000000000e+00
"Vn_D1:i" 7.515299534009539e-14
"Vn_D1:pwr" 0.000000000000000e+00
"Vn_GND:v" 0.000000000000000e+00
"Vn_GND:i" 2.548661070589951e-10
"Vn_GND:pwr" 0.000000000000000e+00
"Vn_SD:v" 0.000000000000000e+00
"Vn_SD:i" -5.105918260952404e-13
"Vn_SD:pwr" -0.000000000000000e+00
"Vn_VDD:v" 1.200000000000000e+00
"Vn_VDD:i" -2.544854041861257e-10
"Vn_VDD:pwr" -3.053824850233509e-10
"Vn_Z:v" 0.000000000000000e+00
"Vn_Z:i" -1.942569376451041e-16
"Vn_Z:pwr" -0.000000000000000e+00
"n_Z" 1.199999494856090e+00
"n_D1" 0.000000000000000e+00
"n_SD" 1.200000000000000e+00
"Vn_D1:n" -7.515299534009539e-14
"Vn_D1:p" 7.515299534009539e-14
"Vn_GND:n" -2.548661070589951e-10
"Vn_GND:p" 2.548661070589951e-10
"Vn_SD:n" 5.105918260952404e-13
"Vn_SD:p" -5.105918260952404e-13
"Vn_VDD:n" 2.544854041861257e-10
"Vn_VDD:p" -2.544854041861257e-10
"Vn_Z:n" 1.942569376451041e-16
"Vn_Z:p" -1.942569376451041e-16
"time" 2.769000000000001e-09
"Vn_D1:v" 0.000000000000000e+00
"Vn_D1:i" 7.518624695020098e-14
"Vn_D1:pwr" 0.000000000000000e+00
"Vn_GND:v" 0.000000000000000e+00
"Vn_GND:i" 2.548662516729983e-10
"Vn_GND:pwr" 0.000000000000000e+00
"Vn_SD:v" 0.000000000000000e+00
"Vn_SD:i" -5.105524537511526e-13
"Vn_SD:pwr" -0.000000000000000e+00
"Vn_VDD:v" 1.200000000000000e+00
"Vn_VDD:i" -2.544859832835064e-10
"Vn_VDD:pwr" -3.053831799402077e-10
"Vn_Z:v" 0.000000000000000e+00
"Vn_Z:i" 1.650058986410927e-16
"Vn_Z:pwr" 0.000000000000000e+00
"n_Z" 1.199999494853088e+00
"n_D1" 0.000000000000000e+00
"n_SD" 1.200000000000000e+00
"Vn_D1:n" -7.518624695020098e-14
"Vn_D1:p" 7.518624695020098e-14
"Vn_GND:n" -2.548662516729983e-10
"Vn_GND:p" 2.548662516729983e-10
"Vn_SD:n" 5.105524537511526e-13
"Vn_SD:p" -5.105524537511526e-13
"Vn_VDD:n" 2.544859832835064e-10
"Vn_VDD:p" -2.544859832835064e-10
"Vn_Z:n" -1.650058986410927e-16
"Vn_Z:p" 1.650058986410927e-16
"time" 3.000000000000000e-09
"Vn_D1:v" 0.000000000000000e+00
"Vn_D1:i" 7.516430250058365e-14
"Vn_D1:pwr" 0.000000000000000e+00
"Vn_GND:v" 0.000000000000000e+00
"Vn_GND:i" 2.548661046281271e-10
"Vn_GND:pwr" 0.000000000000000e+00
"Vn_SD:v" 0.000000000000000e+00
"Vn_SD:i" -5.105792708250192e-13
"Vn_SD:pwr" -0.000000000000000e+00
"Vn_VDD:v" 1.200000000000000e+00
"Vn_VDD:i" -2.544855322609328e-10
"Vn_VDD:pwr" -3.053826387131194e-10
"Vn_Z:v" 0.000000000000000e+00
"Vn_Z:i" -8.946526074872713e-17
"Vn_Z:pwr" -0.000000000000000e+00
"n_Z" 1.199999494855384e+00
"n_D1" 0.000000000000000e+00
"n_SD" 1.200000000000000e+00
"Vn_D1:n" -7.516430250058365e-14
"Vn_D1:p" 7.516430250058365e-14
"Vn_GND:n" -2.548661046281271e-10
"Vn_GND:p" 2.548661046281271e-10
"Vn_SD:n" 5.105792708250192e-13
"Vn_SD:p" -5.105792708250192e-13
"Vn_VDD:n" 2.544855322609328e-10
"Vn_VDD:p" -2.544855322609328e-10
"Vn_Z:n" 8.946526074872713e-17
"Vn_Z:p" -8.946526074872713e-17
"time" 3.010000000000000e-09
"Vn_D1:v" 0.000000000000000e+00
"Vn_D1:i" 7.516439694028842e-14
"Vn_D1:pwr" 0.000000000000000e+00
"Vn_GND:v" 0.000000000000000e+00
"Vn_GND:i" 2.548661149594020e-10
"Vn_GND:pwr" 0.000000000000000e+00
"Vn_SD:v" 0.000000000000000e+00
"Vn_SD:i" -5.105778777746584e-13
"Vn_SD:pwr" -0.000000000000000e+00
"Vn_VDD:v" 1.200000000000000e+00
"Vn_VDD:i" -2.544855669016618e-10
"Vn_VDD:pwr" -3.053826802819942e-10
"Vn_Z:v" 0.000000000000000e+00
"Vn_Z:i" -6.611065151141959e-17
"Vn_Z:pwr" -0.000000000000000e+00
"n_Z" 1.199999494855210e+00
"n_D1" 0.000000000000000e+00
"n_SD" 1.200000000000000e+00
"Vn_D1:n" -7.516439694028842e-14
"Vn_D1:p" 7.516439694028842e-14
"Vn_GND:n" -2.548661149594020e-10
"Vn_GND:p" 2.548661149594020e-10
"Vn_SD:n" 5.105778777746584e-13
"Vn_SD:p" -5.105778777746584e-13
"Vn_VDD:n" 2.544855669016618e-10
"Vn_VDD:p" -2.544855669016618e-10
"Vn_Z:n" 6.611065151141959e-17
"Vn_Z:p" -6.611065151141959e-17
"time" 3.030000000000000e-09
"Vn_D1:v" 0.000000000000000e+00
"Vn_D1:i" 7.516675369316245e-14
"Vn_D1:pwr" 0.000000000000000e+00
"Vn_GND:v" 0.000000000000000e+00
"Vn_GND:i" 2.548661271008972e-10
"Vn_GND:pwr" 0.000000000000000e+00
"Vn_SD:v" 0.000000000000000e+00
"Vn_SD:i" -5.105752552740648e-13
"Vn_SD:pwr" -0.000000000000000e+00
"Vn_VDD:v" 1.200000000000000e+00
"Vn_VDD:i" -2.544856088513230e-10
"Vn_VDD:pwr" -3.053827306215876e-10
"Vn_Z:v" 0.000000000000000e+00
"Vn_Z:i" -4.124646970466068e-17
"Vn_Z:pwr" -0.000000000000000e+00
"n_Z" 1.199999494854993e+00
"n_D1" 0.000000000000000e+00
"n_SD" 1.200000000000000e+00
"Vn_D1:n" -7.516675369316245e-14
"Vn_D1:p" 7.516675369316245e-14
"Vn_GND:n" -2.548661271008972e-10
"Vn_GND:p" 2.548661271008972e-10
"Vn_SD:n" 5.105752552740648e-13
"Vn_SD:p" -5.105752552740648e-13
"Vn_VDD:n" 2.544856088513230e-10
"Vn_VDD:p" -2.544856088513230e-10
"Vn_Z:n" 4.124646970466068e-17
"Vn_Z:p" -4.124646970466068e-17
"time" 3.070000000000001e-09
"Vn_D1:v" 0.000000000000000e+00
"Vn_D1:i" 7.517024814097259e-14
"Vn_D1:pwr" 0.000000000000000e+00
"Vn_GND:v" 0.000000000000000e+00
"Vn_GND:i" 2.548661423098353e-10
"Vn_GND:pwr" 0.000000000000000e+00
"Vn_SD:v" 0.000000000000000e+00
"Vn_SD:i" -5.105714381585662e-13
"Vn_SD:pwr" -0.000000000000000e+00
"Vn_VDD:v" 1.200000000000000e+00
"Vn_VDD:i" -2.544856588630644e-10
"Vn_VDD:pwr" -3.053827906356773e-10
"Vn_Z:v" 0.000000000000000e+00
"Vn_Z:i" -9.124561683214989e-18
"Vn_Z:pwr" -0.000000000000000e+00
"n_Z" 1.199999494854728e+00
"n_D1" 0.000000000000000e+00
"n_SD" 1.200000000000000e+00
"Vn_D1:n" -7.517024814097259e-14
"Vn_D1:p" 7.517024814097259e-14
"Vn_GND:n" -2.548661423098353e-10
"Vn_GND:p" 2.548661423098353e-10
"Vn_SD:n" 5.105714381585662e-13
"Vn_SD:p" -5.105714381585662e-13
"Vn_VDD:n" 2.544856588630644e-10
"Vn_VDD:p" -2.544856588630644e-10
"Vn_Z:n" 9.124561683214989e-18
"Vn_Z:p" -9.124561683214989e-18
"time" 3.150000000000003e-09
"Vn_D1:v" 0.000000000000000e+00
"Vn_D1:i" 7.517115939882570e-14
"Vn_D1:pwr" 0.000000000000000e+00
"Vn_GND:v" 0.000000000000000e+00
"Vn_GND:i" 2.548661416471215e-10
"Vn_GND:pwr" 0.000000000000000e+00
"Vn_SD:v" 0.000000000000000e+00
"Vn_SD:i" -5.105705632272699e-13
"Vn_SD:pwr" -0.000000000000000e+00
"Vn_VDD:v" 1.200000000000000e+00
"Vn_VDD:i" -2.544856806050766e-10
"Vn_VDD:pwr" -3.053828167260920e-10
"Vn_Z:v" 0.000000000000000e+00
"Vn_Z:i" -4.140148667901787e-19
"Vn_Z:pwr" -0.000000000000000e+00
"n_Z" 1.199999494854628e+00
"n_D1" 0.000000000000000e+00
"n_SD" 1.200000000000000e+00
"Vn_D1:n" -7.517115939882570e-14
"Vn_D1:p" 7.517115939882570e-14
"Vn_GND:n" -2.548661416471215e-10
"Vn_GND:p" 2.548661416471215e-10
"Vn_SD:n" 5.105705632272699e-13
"Vn_SD:p" -5.105705632272699e-13
"Vn_VDD:n" 2.544856806050766e-10
"Vn_VDD:p" -2.544856806050766e-10
"Vn_Z:n" 4.140148667901787e-19
"Vn_Z:p" -4.140148667901787e-19
"time" 3.310000000000005e-09
"Vn_D1:v" 0.000000000000000e+00
"Vn_D1:i" 7.517143932732800e-14
"Vn_D1:pwr" 0.000000000000000e+00
"Vn_GND:v" 0.000000000000000e+00
"Vn_GND:i" 2.548661346102307e-10
"Vn_GND:pwr" 0.000000000000000e+00
"Vn_SD:v" 0.000000000000000e+00
"Vn_SD:i" -5.105698958436872e-13
"Vn_SD:pwr" -0.000000000000000e+00
"Vn_VDD:v" 1.200000000000000e+00
"Vn_VDD:i" -2.544856670201405e-10
"Vn_VDD:pwr" -3.053828004241685e-10
"Vn_Z:v" 0.000000000000000e+00
"Vn_Z:i" 3.103730843098775e-18
"Vn_Z:pwr" 0.000000000000000e+00
"n_Z" 1.199999494854684e+00
"n_D1" 0.000000000000000e+00
"n_SD" 1.200000000000000e+00
"Vn_D1:n" -7.517143932732800e-14
"Vn_D1:p" 7.517143932732800e-14
"Vn_GND:n" -2.548661346102307e-10
"Vn_GND:p" 2.548661346102307e-10
"Vn_SD:n" 5.105698958436872e-13
"Vn_SD:p" -5.105698958436872e-13
"Vn_VDD:n" 2.544856670201405e-10
"Vn_VDD:p" -2.544856670201405e-10
"Vn_Z:n" -3.103730843098775e-18
"Vn_Z:p" 3.103730843098775e-18
"time" 3.630000000000011e-09
"Vn_D1:v" 0.000000000000000e+00
"Vn_D1:i" 7.517119617682076e-14
"Vn_D1:pwr" 0.000000000000000e+00
"Vn_GND:v" 0.000000000000000e+00
"Vn_GND:i" 2.548661134832841e-10
"Vn_GND:pwr" 0.000000000000000e+00
"Vn_SD:v" 0.000000000000000e+00
"Vn_SD:i" -5.105706698508813e-13
"Vn_SD:pwr" -0.000000000000000e+00
"Vn_VDD:v" 1.200000000000000e+00
"Vn_VDD:i" -2.544856479396565e-10
"Vn_VDD:pwr" -3.053827775275878e-10
"Vn_Z:v" 0.000000000000000e+00
"Vn_Z:i" -1.053126644127694e-18
"Vn_Z:pwr" -0.000000000000000e+00
"n_Z" 1.199999494854771e+00
"n_D1" 0.000000000000000e+00
"n_SD" 1.200000000000000e+00
"Vn_D1:n" -7.517119617682076e-14
"Vn_D1:p" 7.517119617682076e-14
"Vn_GND:n" -2.548661134832841e-10
"Vn_GND:p" 2.548661134832841e-10
"Vn_SD:n" 5.105706698508813e-13
"Vn_SD:p" -5.105706698508813e-13
"Vn_VDD:n" 2.544856479396565e-10
"Vn_VDD:p" -2.544856479396565e-10
"Vn_Z:n" 1.053126644127694e-18
"Vn_Z:p" -1.053126644127694e-18
"time" 4.270000000000022e-09
"Vn_D1:v" 0.000000000000000e+00
"Vn_D1:i" 7.517145995559737e-14
"Vn_D1:pwr" 0.000000000000000e+00
"Vn_GND:v" 0.000000000000000e+00
"Vn_GND:i" 2.548660791208679e-10
"Vn_GND:pwr" 0.000000000000000e+00
"Vn_SD:v" 0.000000000000000e+00
"Vn_SD:i" -5.105697956200462e-13
"Vn_SD:pwr" -0.000000000000000e+00
"Vn_VDD:v" 1.200000000000000e+00
"Vn_VDD:i" -2.544856102703547e-10
"Vn_VDD:pwr" -3.053827323244256e-10
"Vn_Z:v" 0.000000000000000e+00
"Vn_Z:i" 2.895820929779969e-18
"Vn_Z:pwr" 0.000000000000000e+00
"n_Z" 1.199999494854926e+00
"n_D1" 0.000000000000000e+00
"n_SD" 1.200000000000000e+00
"Vn_D1:n" -7.517145995559737e-14
"Vn_D1:p" 7.517145995559737e-14
"Vn_GND:n" -2.548660791208679e-10
"Vn_GND:p" 2.548660791208679e-10
"Vn_SD:n" 5.105697956200462e-13
"Vn_SD:p" -5.105697956200462e-13
"Vn_VDD:n" 2.544856102703547e-10
"Vn_VDD:p" -2.544856102703547e-10
"Vn_Z:n" -2.895820929779969e-18
"Vn_Z:p" 2.895820929779969e-18
"time" 5.050000000000022e-09
"Vn_D1:v" 0.000000000000000e+00
"Vn_D1:i" 7.517102934297217e-14
"Vn_D1:pwr" 0.000000000000000e+00
"Vn_GND:v" 0.000000000000000e+00
"Vn_GND:i" 2.548660297550714e-10
"Vn_GND:pwr" 0.000000000000000e+00
"Vn_SD:v" 0.000000000000000e+00
"Vn_SD:i" -5.105709015360735e-13
"Vn_SD:pwr" -0.000000000000000e+00
"Vn_VDD:v" 1.200000000000000e+00
"Vn_VDD:i" -2.544855703810327e-10
"Vn_VDD:pwr" -3.053826844572392e-10
"Vn_Z:v" 0.000000000000000e+00
"Vn_Z:i" -1.138467163235418e-18
"Vn_Z:pwr" -0.000000000000000e+00
"n_Z" 1.199999494855106e+00
"n_D1" 0.000000000000000e+00
"n_SD" 1.200000000000000e+00
"Vn_D1:n" -7.517102934297217e-14
"Vn_D1:p" 7.517102934297217e-14
"Vn_GND:n" -2.548660297550714e-10
"Vn_GND:p" 2.548660297550714e-10
"Vn_SD:n" 5.105709015360735e-13
"Vn_SD:p" -5.105709015360735e-13
"Vn_VDD:n" 2.544855703810327e-10
"Vn_VDD:p" -2.544855703810327e-10
"Vn_Z:n" 1.138467163235418e-18
"Vn_Z:p" -1.138467163235418e-18
"time" 5.830000000000022e-09
"Vn_D1:v" 0.000000000000000e+00
"Vn_D1:i" 7.517157477532743e-14
"Vn_D1:pwr" 0.000000000000000e+00
"Vn_GND:v" 0.000000000000000e+00
"Vn_GND:i" 2.548659894789752e-10
"Vn_GND:pwr" 0.000000000000000e+00
"Vn_SD:v" 0.000000000000000e+00
"Vn_SD:i" -5.105696249258731e-13
"Vn_SD:pwr" -0.000000000000000e+00
"Vn_VDD:v" 1.200000000000000e+00
"Vn_VDD:i" -2.544855157906030e-10
"Vn_VDD:pwr" -3.053826189487236e-10
"Vn_Z:v" 0.000000000000000e+00
"Vn_Z:i" 3.357737483549863e-18
"Vn_Z:pwr" 0.000000000000000e+00
"n_Z" 1.199999494855334e+00
"n_D1" 0.000000000000000e+00
"n_SD" 1.200000000000000e+00
"Vn_D1:n" -7.517157477532743e-14
"Vn_D1:p" 7.517157477532743e-14
"Vn_GND:n" -2.548659894789752e-10
"Vn_GND:p" 2.548659894789752e-10
"Vn_SD:n" 5.105696249258731e-13
"Vn_SD:p" -5.105696249258731e-13
"Vn_VDD:n" 2.544855157906030e-10
"Vn_VDD:p" -2.544855157906030e-10
"Vn_Z:n" -3.357737483549863e-18
"Vn_Z:p" 3.357737483549863e-18
"time" 6.010000000000000e-09
"Vn_D1:v" 0.000000000000000e+00
"Vn_D1:i" 7.517101017975996e-14
"Vn_D1:pwr" 0.000000000000000e+00
"Vn_GND:v" 0.000000000000000e+00
"Vn_GND:i" 2.548659738456883e-10
"Vn_GND:pwr" 0.000000000000000e+00
"Vn_SD:v" 0.000000000000000e+00
"Vn_SD:i" -5.105710312889287e-13
"Vn_SD:pwr" -0.000000000000000e+00
"Vn_VDD:v" 1.200000000000000e+00
"Vn_VDD:i" -2.544855092805609e-10
"Vn_VDD:pwr" -3.053826111366731e-10
"Vn_Z:v" 0.000000000000000e+00
"Vn_Z:i" -2.075468034094531e-18
"Vn_Z:pwr" -0.000000000000000e+00
"n_Z" 1.199999494855364e+00
"n_D1" 0.000000000000000e+00
"n_SD" 1.200000000000000e+00
"Vn_D1:n" -7.517101017975996e-14
"Vn_D1:p" 7.517101017975996e-14
"Vn_GND:n" -2.548659738456883e-10
"Vn_GND:p" 2.548659738456883e-10
"Vn_SD:n" 5.105710312889287e-13
"Vn_SD:p" -5.105710312889287e-13
"Vn_VDD:n" 2.544855092805609e-10
"Vn_VDD:p" -2.544855092805609e-10
"Vn_Z:n" 2.075468034094531e-18
"Vn_Z:p" -2.075468034094531e-18
"time" 6.019999795400000e-09
"Vn_D1:v" 0.000000000000000e+00
"Vn_D1:i" 7.517107871458805e-14
"Vn_D1:pwr" 0.000000000000000e+00
"Vn_GND:v" 0.000000000000000e+00
"Vn_GND:i" 2.548659756602948e-10
"Vn_GND:pwr" 0.000000000000000e+00
"Vn_SD:v" 0.000000000000000e+00
"Vn_SD:i" -5.105701929790074e-13
"Vn_SD:pwr" -0.000000000000000e+00
"Vn_VDD:v" 1.200000000000000e+00
"Vn_VDD:i" -2.544855088917444e-10
"Vn_VDD:pwr" -3.053826106700933e-10
"Vn_Z:v" 0.000000000000000e+00
"Vn_Z:i" 8.247244951897950e-19
"Vn_Z:pwr" 0.000000000000000e+00
"n_Z" 1.199999494855366e+00
"n_D1" 0.000000000000000e+00
"n_SD" 1.200000000000000e+00
"Vn_D1:n" -7.517107871458805e-14
"Vn_D1:p" 7.517107871458805e-14
"Vn_GND:n" -2.548659756602948e-10
"Vn_GND:p" 2.548659756602948e-10
"Vn_SD:n" 5.105701929790074e-13
"Vn_SD:p" -5.105701929790074e-13
"Vn_VDD:n" 2.544855088917444e-10
"Vn_VDD:p" -2.544855088917444e-10
"Vn_Z:n" -8.247244951897950e-19
"Vn_Z:p" 8.247244951897950e-19
"time" 6.020000000000000e-09
"Vn_D1:v" 0.000000000000000e+00
"Vn_D1:i" -1.348174194061182e-06
"Vn_D1:pwr" -0.000000000000000e+00
"Vn_GND:v" 0.000000000000000e+00
"Vn_GND:i" 2.421593908064190e-07
"Vn_GND:pwr" 0.000000000000000e+00
"Vn_SD:v" 0.000000000000000e+00
"Vn_SD:i" 5.440674498392790e-11
"Vn_SD:pwr" 0.000000000000000e+00
"Vn_VDD:v" 1.200000000000000e+00
"Vn_VDD:i" 1.105960115948064e-06
"Vn_VDD:pwr" 1.327152139137677e-06
"Vn_Z:v" 0.000000000000000e+00
"Vn_Z:i" 2.244228358689302e-13
"Vn_Z:pwr" 0.000000000000000e+00
"n_Z" 1.199999494855378e+00
"n_D1" 2.456580613633633e-07
"n_SD" 1.200000000000000e+00
"Vn_D1:n" 1.348174194061182e-06
"Vn_D1:p" -1.348174194061182e-06
"Vn_GND:n" -2.421593908064190e-07
"Vn_GND:p" 2.421593908064190e-07
"Vn_SD:n" -5.440674498392790e-11
"Vn_SD:p" 5.440674498392790e-11
"Vn_VDD:n" -1.105960115948064e-06
"Vn_VDD:p" 1.105960115948064e-06
"Vn_Z:n" -2.244228358689302e-13
"Vn_Z:p" 2.244228358689302e-13
"time" 6.020000409200001e-09
"Vn_D1:v" 0.000000000000000e+00
"Vn_D1:i" -1.349430108117390e-06
"Vn_D1:pwr" -0.000000000000000e+00
"Vn_GND:v" 0.000000000000000e+00
"Vn_GND:i" 2.423764586788929e-07
"Vn_GND:pwr" 0.000000000000000e+00
"Vn_SD:v" 0.000000000000000e+00
"Vn_SD:i" 1.639636765057683e-10
"Vn_SD:pwr" 0.000000000000000e+00
"Vn_VDD:v" 1.200000000000000e+00
"Vn_VDD:i" 1.106888071311036e-06
"Vn_VDD:pwr" 1.328265685573243e-06
"Vn_Z:v" 0.000000000000000e+00
"Vn_Z:i" 1.559163174925788e-12
"Vn_Z:pwr" 0.000000000000000e+00
"n_Z" 1.199999494855546e+00
"n_D1" 7.369741840900898e-07
"n_SD" 1.200000000000000e+00
"Vn_D1:n" 1.349430108117390e-06
"Vn_D1:p" -1.349430108117390e-06
"Vn_GND:n" -2.423764586788929e-07
"Vn_GND:p" 2.423764586788929e-07
"Vn_SD:n" -1.639636765057683e-10
"Vn_SD:p" 1.639636765057683e-10
"Vn_VDD:n" -1.106888071311036e-06
"Vn_VDD:p" 1.106888071311036e-06
"Vn_Z:n" -1.559163174925788e-12
"Vn_Z:p" 1.559163174925788e-12
"time" 6.020001227600002e-09
"Vn_D1:v" 0.000000000000000e+00
"Vn_D1:i" -1.351934665565518e-06
"Vn_D1:pwr" -0.000000000000000e+00
"Vn_GND:v" 0.000000000000000e+00
"Vn_GND:i" 2.428094189129487e-07
"Vn_GND:pwr" 0.000000000000000e+00
"Vn_SD:v" 0.000000000000000e+00
"Vn_SD:i" 3.825234516430488e-10
"Vn_SD:pwr" 0.000000000000000e+00
"Vn_VDD:v" 1.200000000000000e+00
"Vn_VDD:i" 1.108736693000130e-06
"Vn_VDD:pwr" 1.330484031600156e-06
"Vn_Z:v" 0.000000000000000e+00
"Vn_Z:i" 5.977019838116922e-12
"Vn_Z:pwr" 0.000000000000000e+00
"n_Z" 1.199999494856358e+00
"n_D1" 1.719606429543543e-06
"n_SD" 1.200000000000000e+00
"Vn_D1:n" 1.351934665565518e-06
"Vn_D1:p" -1.351934665565518e-06
"Vn_GND:n" -2.428094189129487e-07
"Vn_GND:p" 2.428094189129487e-07
"Vn_SD:n" -3.825234516430488e-10
"Vn_SD:p" 3.825234516430488e-10
"Vn_VDD:n" -1.108736693000130e-06
"Vn_VDD:p" 1.108736693000130e-06
"Vn_Z:n" -5.977019838116922e-12
"Vn_Z:p" 5.977019838116922e-12
"time" 6.020002864400004e-09
"Vn_D1:v" 0.000000000000000e+00
"Vn_D1:i" -1.356900228061485e-06
"Vn_D1:pwr" -0.000000000000000e+00
"Vn_GND:v" 0.000000000000000e+00
"Vn_GND:i" 2.436684051397790e-07
"Vn_GND:pwr" 0.000000000000000e+00
"Vn_SD:v" 0.000000000000000e+00
"Vn_SD:i" 8.163340673856757e-10
"Vn_SD:pwr" 0.000000000000000e+00
"Vn_VDD:v" 1.200000000000000e+00
"Vn_VDD:i" 1.112390402417705e-06
"Vn_VDD:pwr" 1.334868482901246e-06
"Vn_Z:v" 0.000000000000000e+00
"Vn_Z:i" 2.502893863566247e-11
"Vn_Z:pwr" 0.000000000000000e+00
"n_Z" 1.199999494863035e+00
"n_D1" 3.684870920450449e-06
"n_SD" 1.200000000000000e+00
"Vn_D1:n" 1.356900228061485e-06
"Vn_D1:p" -1.356900228061485e-06
"Vn_GND:n" -2.436684051397790e-07
"Vn_GND:p" 2.436684051397790e-07
"Vn_SD:n" -8.163340673856757e-10
"Vn_SD:p" 8.163340673856757e-10
"Vn_VDD:n" -1.112390402417705e-06
"Vn_VDD:p" 1.112390402417705e-06
"Vn_Z:n" -2.502893863566247e-11
"Vn_Z:p" 2.502893863566247e-11
"time" 6.020006138000008e-09
"Vn_D1:v" 0.000000000000000e+00
"Vn_D1:i" -1.366660574208398e-06
"Vn_D1:pwr" -0.000000000000000e+00
"Vn_GND:v" 0.000000000000000e+00
"Vn_GND:i" 2.453588757357405e-07
"Vn_GND:pwr" 0.000000000000000e+00
"Vn_SD:v" 0.000000000000000e+00
"Vn_SD:i" 1.670862051545081e-09
"Vn_SD:pwr" 0.000000000000000e+00
"Vn_VDD:v" 1.200000000000000e+00
"Vn_VDD:i" 1.119529406762794e-06
"Vn_VDD:pwr" 1.343435288115353e-06
"Vn_Z:v" 0.000000000000000e+00
"Vn_Z:i" 1.013769848749480e-10
"Vn_Z:pwr" 0.000000000000000e+00
"n_Z" 1.199999494917483e+00
"n_D1" 7.615399902264261e-06
"n_SD" 1.200000000000000e+00
"Vn_D1:n" 1.366660574208398e-06
"Vn_D1:p" -1.366660574208398e-06
"Vn_GND:n" -2.453588757357405e-07
"Vn_GND:p" 2.453588757357405e-07
"Vn_SD:n" -1.670862051545081e-09
"Vn_SD:p" 1.670862051545081e-09
"Vn_VDD:n" -1.119529406762794e-06
"Vn_VDD:p" 1.119529406762794e-06
"Vn_Z:n" -1.013769848749480e-10
"Vn_Z:p" 1.013769848749480e-10
"time" 6.020012685200016e-09
"Vn_D1:v" 0.000000000000000e+00
"Vn_D1:i" -1.385521110557270e-06
"Vn_D1:pwr" -0.000000000000000e+00
"Vn_GND:v" 0.000000000000000e+00
"Vn_GND:i" 2.486326746770023e-07
"Vn_GND:pwr" 0.000000000000000e+00
"Vn_SD:v" 0.000000000000000e+00
"Vn_SD:i" 3.328719082848326e-09
"Vn_SD:pwr" 0.000000000000000e+00
"Vn_VDD:v" 1.200000000000000e+00
"Vn_VDD:i" 1.133171571681480e-06
"Vn_VDD:pwr" 1.359805886017777e-06
"Vn_Z:v" 0.000000000000000e+00
"Vn_Z:i" 3.880879733597632e-10
"Vn_Z:pwr" 0.000000000000000e+00
"n_Z" 1.199999495339144e+00
"n_D1" 1.547645786589189e-05
"n_SD" 1.200000000000000e+00
"Vn_D1:n" 1.385521110557270e-06
"Vn_D1:p" -1.385521110557270e-06
"Vn_GND:n" -2.486326746770023e-07
"Vn_GND:p" 2.486326746770023e-07
"Vn_SD:n" -3.328719082848326e-09
"Vn_SD:p" 3.328719082848326e-09
"Vn_VDD:n" -1.133171571681480e-06
"Vn_VDD:p" 1.133171571681480e-06
"Vn_Z:n" -3.880879733597632e-10
"Vn_Z:p" 3.880879733597632e-10
"time" 6.020025779600032e-09
"Vn_D1:v" 0.000000000000000e+00
"Vn_D1:i" -1.413780294707556e-06
"Vn_D1:pwr" -0.000000000000000e+00
"Vn_GND:v" 0.000000000000000e+00
"Vn_GND:i" 2.547854669039780e-07
"Vn_GND:pwr" 0.000000000000000e+00
"Vn_SD:v" 0.000000000000000e+00
"Vn_SD:i" 6.449908785975357e-09
"Vn_SD:pwr" 0.000000000000000e+00
"Vn_VDD:v" 1.200000000000000e+00
"Vn_VDD:i" 1.151169845462023e-06
"Vn_VDD:pwr" 1.381403814554427e-06
"Vn_Z:v" 0.000000000000000e+00
"Vn_Z:i" 1.375020968819093e-09
"Vn_Z:pwr" 0.000000000000000e+00
"n_Z" 1.199999498376888e+00
"n_D1" 3.119857379314713e-05
"n_SD" 1.200000000000000e+00
"Vn_D1:n" 1.413780294707556e-06
"Vn_D1:p" -1.413780294707556e-06
"Vn_GND:n" -2.547854669039780e-07
"Vn_GND:p" 2.547854669039780e-07
"Vn_SD:n" -6.449908785975357e-09
"Vn_SD:p" 6.449908785975357e-09
"Vn_VDD:n" -1.151169845462023e-06
"Vn_VDD:p" 1.151169845462023e-06
"Vn_Z:n" -1.375020968819093e-09
"Vn_Z:p" 1.375020968819093e-09
"time" 6.020051968400065e-09
"Vn_D1:v" 0.000000000000000e+00
"Vn_D1:i" -1.463281162536871e-06
"Vn_D1:pwr" -0.000000000000000e+00
"Vn_GND:v" 0.000000000000000e+00
"Vn_GND:i" 2.656907853092283e-07
"Vn_GND:pwr" 0.000000000000000e+00
"Vn_SD:v" 0.000000000000000e+00
"Vn_SD:i" 1.199616611903225e-08
"Vn_SD:pwr" 0.000000000000000e+00
"Vn_VDD:v" 1.200000000000000e+00
"Vn_VDD:i" 1.181256522454023e-06
"Vn_VDD:pwr" 1.417507826944828e-06
"Vn_Z:v" 0.000000000000000e+00
"Vn_Z:i" 4.337631296721362e-09
"Vn_Z:pwr" 0.000000000000000e+00
"n_Z" 1.199999518062087e+00
"n_D1" 6.264280564765764e-05
"n_SD" 1.200000000000000e+00
"Vn_D1:n" 1.463281162536871e-06
"Vn_D1:p" -1.463281162536871e-06
"Vn_GND:n" -2.656907853092283e-07
"Vn_GND:p" 2.656907853092283e-07
"Vn_SD:n" -1.199616611903225e-08
"Vn_SD:p" 1.199616611903225e-08
"Vn_VDD:n" -1.181256522454023e-06
"Vn_VDD:p" 1.181256522454023e-06
"Vn_Z:n" -4.337631296721362e-09
"Vn_Z:p" 4.337631296721362e-09
"time" 6.020104346000130e-09
"Vn_D1:v" 0.000000000000000e+00
"Vn_D1:i" -1.554580009539701e-06
"Vn_D1:pwr" -0.000000000000000e+00
"Vn_GND:v" 0.000000000000000e+00
"Vn_GND:i" 2.828299254065606e-07
"Vn_GND:pwr" 0.000000000000000e+00
"Vn_SD:v" 0.000000000000000e+00
"Vn_SD:i" 2.082590969331847e-08