HEADER
"PSFversion" "1.00"
"simulator" "spectre"
"version" "10.1.1.164.isr11"
"date" "3:01:57 PM, Fri Oct 17, 2014"
"design" "* Spectre Timing Acquisition"
"analysis type" "tran"
"analysis name" "transient1-002_transient1"
"analysis description" "Transient Analysis `transient1-002_transient1': time = (0 s -> 39 ns)"
"xVecSorted" "ascending"
"tolerance.relative" 0.00100000
"start" 0.00000
"outputstart" 0.00000
"stop" 3.90000e-08
"step" 3.90000e-11
"maxstep" 7.80000e-10
"ic" "all"
"useprevic" "no"
"skipdc" "no"
"reltol" 0.00100000
"abstol(V)" 1.00000e-06
"abstol(I)" 1.00000e-12
"temp" 25.0000
"tnom" 27.0000
"tempeffects" "all"
"errpreset" "moderate"
"method" "traponly"
"lteratio" 3.50000
"relref" "sigglobal"
"cmin" 0.00000
"gmin" 1.00000e-12
TYPE
"sweep" FLOAT DOUBLE PROP(
"key" "sweep"
)
"Tau" FLOAT DOUBLE PROP(
"units" "N*m"
"key" "node"
"tolerance" 1.00000e-06
)
"Alpha" FLOAT DOUBLE PROP(
"units" "rads/s^2"
"key" "node"
"tolerance" 1.00000e-06
)
"Omega" FLOAT DOUBLE PROP(
"units" "rads/s"
"key" "node"
"tolerance" 1.00000e-06
)
"Theta" FLOAT DOUBLE PROP(
"units" "rads"
"key" "node"
"tolerance" 1.00000e-06
)
"F" FLOAT DOUBLE PROP(
"units" "N"
"key" "node"
"tolerance" 1.00000e-06
)
"Imp" FLOAT DOUBLE PROP(
"units" "m/s^3"
"key" "node"
"tolerance" 1.00000e-06
)
"Acc" FLOAT DOUBLE PROP(
"units" "m/s^2"
"key" "node"
"tolerance" 1.00000e-06
)
"Vel" FLOAT DOUBLE PROP(
"units" "m/s"
"key" "node"
"tolerance" 1.00000e-06
)
"Pos" FLOAT DOUBLE PROP(
"units" "m"
"key" "node"
"tolerance" 1.00000e-06
)
"Phi" FLOAT DOUBLE PROP(
"units" "Wb"
"key" "node"
"tolerance" 1.00000e-09
)
"Q" FLOAT DOUBLE PROP(
"units" "coul"
"key" "node"
"tolerance" 1.00000e-14
)
"V" FLOAT DOUBLE PROP(
"units" "V"
"key" "node"
"tolerance" 1.00000e-06
)
"I" FLOAT DOUBLE PROP(
"units" "A"
"key" "branch"
"tolerance" 1.00000e-12
)
"MMF" FLOAT DOUBLE PROP(
"units" "A*turn"
"key" "node"
"tolerance" 1.00000e-12
)
"Wb" FLOAT DOUBLE PROP(
"units" "Wb"
"key" "node"
"tolerance" 1.00000e-09
)
"Temp" FLOAT DOUBLE PROP(
"units" "C"
"key" "node"
"tolerance" 0.000100000
)
"Pwr" FLOAT DOUBLE PROP(
"units" "W"
"key" "node"
"tolerance" 1.00000e-09
)
"U" FLOAT DOUBLE PROP(
"units" ""
"key" "node"
"tolerance" 1.00000e-06
)
"V/Sec" FLOAT DOUBLE PROP(
"units" "V/s"
"key" "node"
"tolerance" 0.000100000
)
"I/Sec" FLOAT DOUBLE PROP(
"units" "A/s"
"key" "node"
"tolerance" 1.00000e-06
)
"1/Sec" FLOAT DOUBLE PROP(
"units" "1/s"
"key" "node"
"tolerance" 0.000100000
)
"HOD" FLOAT DOUBLE PROP(
"units" ""
"key" "node"
"tolerance" 0.0100000
)
"A" FLOAT DOUBLE PROP(
"key" "inst"
)
"W" FLOAT DOUBLE PROP(
"key" "inst"
)
SWEEP
"time" "sweep" PROP(
"sweep_direction" 0
"units" "s"
"plot" 0
"grid" 1
)
TRACE
"Vn_D1:v" "V" PROP(
"units" "V"
)
"Vn_D1:i" "A" PROP(
"units" "A"
)
"Vn_D1:pwr" "W" PROP(
"units" "W"
)
"Vn_GND:v" "V" PROP(
"units" "V"
)
"Vn_GND:i" "A" PROP(
"units" "A"
)
"Vn_GND:pwr" "W" PROP(
"units" "W"
)
"Vn_SD:v" "V" PROP(
"units" "V"
)
"Vn_SD:i" "A" PROP(
"units" "A"
)
"Vn_SD:pwr" "W" PROP(
"units" "W"
)
"Vn_VDD:v" "V" PROP(
"units" "V"
)
"Vn_VDD:i" "A" PROP(
"units" "A"
)
"Vn_VDD:pwr" "W" PROP(
"units" "W"
)
"Vn_Z:v" "V" PROP(
"units" "V"
)
"Vn_Z:i" "A" PROP(
"units" "A"
)
"Vn_Z:pwr" "W" PROP(
"units" "W"
)
"n_Z" "V"
"n_D1" "V"
"n_SD" "V"
"Vn_D1:n" "I"
"Vn_D1:p" "I"
"Vn_GND:n" "I"
"Vn_GND:p" "I"
"Vn_SD:n" "I"
"Vn_SD:p" "I"
"Vn_VDD:n" "I"
"Vn_VDD:p" "I"
"Vn_Z:n" "I"
"Vn_Z:p" "I"
VALUE
"time" 0.000000000000000e+00
"Vn_D1:v" 0.000000000000000e+00
"Vn_D1:i" 7.517119452868310e-14
"Vn_D1:pwr" 0.000000000000000e+00
"Vn_GND:v" 0.000000000000000e+00
"Vn_GND:i" 2.548493107915355e-10
"Vn_GND:pwr" 0.000000000000000e+00
"Vn_SD:v" 0.000000000000000e+00
"Vn_SD:i" -5.105704018311274e-13
"Vn_SD:pwr" -0.000000000000000e+00
"Vn_VDD:v" 1.200000000000000e+00
"Vn_VDD:i" -2.544688430804969e-10
"Vn_VDD:pwr" -3.053626116965963e-10
"Vn_Z:v" 0.000000000000000e+00
"Vn_Z:i" 0.000000000000000e+00
"Vn_Z:pwr" 0.000000000000000e+00
"n_Z" 1.199999494927445e+00
"n_D1" 0.000000000000000e+00
"n_SD" 1.200000000000000e+00
"Vn_D1:n" -7.517119452868310e-14
"Vn_D1:p" 7.517119452868310e-14
"Vn_GND:n" -2.548493107915355e-10
"Vn_GND:p" 2.548493107915355e-10
"Vn_SD:n" 5.105704018311274e-13
"Vn_SD:p" -5.105704018311274e-13
"Vn_VDD:n" 2.544688430804969e-10
"Vn_VDD:p" -2.544688430804969e-10
"Vn_Z:n" 0.000000000000000e+00
"Vn_Z:p" 0.000000000000000e+00
"time" 3.900000000000000e-11
"Vn_D1:v" 0.000000000000000e+00
"Vn_D1:i" 7.485248264413263e-14
"Vn_D1:pwr" 0.000000000000000e+00
"Vn_GND:v" 0.000000000000000e+00
"Vn_GND:i" 2.548642916880735e-10
"Vn_GND:pwr" 0.000000000000000e+00
"Vn_SD:v" 0.000000000000000e+00
"Vn_SD:i" -5.109739002470229e-13
"Vn_SD:pwr" -0.000000000000000e+00
"Vn_VDD:v" 1.200000000000000e+00
"Vn_VDD:i" -2.544787735270591e-10
"Vn_VDD:pwr" -3.053745282324710e-10
"Vn_Z:v" 0.000000000000000e+00
"Vn_Z:i" -4.328239072249676e-15
"Vn_Z:pwr" -0.000000000000000e+00
"n_Z" 1.199999494889081e+00
"n_D1" 0.000000000000000e+00
"n_SD" 1.200000000000000e+00
"Vn_D1:n" -7.485248264413263e-14
"Vn_D1:p" 7.485248264413263e-14
"Vn_GND:n" -2.548642916880735e-10
"Vn_GND:p" 2.548642916880735e-10
"Vn_SD:n" 5.109739002470229e-13
"Vn_SD:p" -5.109739002470229e-13
"Vn_VDD:n" 2.544787735270591e-10
"Vn_VDD:p" -2.544787735270591e-10
"Vn_Z:n" 4.328239072249676e-15
"Vn_Z:p" -4.328239072249676e-15
"time" 1.170000000000000e-10
"Vn_D1:v" 0.000000000000000e+00
"Vn_D1:i" 7.504830486767899e-14
"Vn_D1:pwr" 0.000000000000000e+00
"Vn_GND:v" 0.000000000000000e+00
"Vn_GND:i" 2.548656960087751e-10
"Vn_GND:pwr" 0.000000000000000e+00
"Vn_SD:v" 0.000000000000000e+00
"Vn_SD:i" -5.107094143282706e-13
"Vn_SD:pwr" -0.000000000000000e+00
"Vn_VDD:v" 1.200000000000000e+00
"Vn_VDD:i" -2.544836115625918e-10
"Vn_VDD:pwr" -3.053803338751102e-10
"Vn_Z:v" 0.000000000000000e+00
"Vn_Z:i" -1.354833700702010e-15
"Vn_Z:pwr" -0.000000000000000e+00
"n_Z" 1.199999494865063e+00
"n_D1" 0.000000000000000e+00
"n_SD" 1.200000000000000e+00
"Vn_D1:n" -7.504830486767899e-14
"Vn_D1:p" 7.504830486767899e-14
"Vn_GND:n" -2.548656960087751e-10
"Vn_GND:p" 2.548656960087751e-10
"Vn_SD:n" 5.107094143282706e-13
"Vn_SD:p" -5.107094143282706e-13
"Vn_VDD:n" 2.544836115625918e-10
"Vn_VDD:p" -2.544836115625918e-10
"Vn_Z:n" 1.354833700702010e-15
"Vn_Z:p" -1.354833700702010e-15
"time" 2.730000000000000e-10
"Vn_D1:v" 0.000000000000000e+00
"Vn_D1:i" 7.521456835793060e-14
"Vn_D1:pwr" 0.000000000000000e+00
"Vn_GND:v" 0.000000000000000e+00
"Vn_GND:i" 2.548665394749236e-10
"Vn_GND:pwr" 0.000000000000000e+00
"Vn_SD:v" 0.000000000000000e+00
"Vn_SD:i" -5.105207992353121e-13
"Vn_SD:pwr" -0.000000000000000e+00
"Vn_VDD:v" 1.200000000000000e+00
"Vn_VDD:i" -2.544866611798601e-10
"Vn_VDD:pwr" -3.053839934158321e-10
"Vn_Z:v" 0.000000000000000e+00
"Vn_Z:i" 4.963728157268644e-16
"Vn_Z:pwr" 0.000000000000000e+00
"n_Z" 1.199999494849845e+00
"n_D1" 0.000000000000000e+00
"n_SD" 1.200000000000000e+00
"Vn_D1:n" -7.521456835793060e-14
"Vn_D1:p" 7.521456835793060e-14
"Vn_GND:n" -2.548665394749236e-10
"Vn_GND:p" 2.548665394749236e-10
"Vn_SD:n" 5.105207992353121e-13
"Vn_SD:p" -5.105207992353121e-13
"Vn_VDD:n" 2.544866611798601e-10
"Vn_VDD:p" -2.544866611798601e-10
"Vn_Z:n" -4.963728157268644e-16
"Vn_Z:p" 4.963728157268644e-16
"time" 5.850000000000002e-10
"Vn_D1:v" 0.000000000000000e+00
"Vn_D1:i" 7.514514421169208e-14
"Vn_D1:pwr" 0.000000000000000e+00
"Vn_GND:v" 0.000000000000000e+00
"Vn_GND:i" 2.548661501430770e-10
"Vn_GND:pwr" 0.000000000000000e+00
"Vn_SD:v" 0.000000000000000e+00
"Vn_SD:i" -5.106005093495514e-13
"Vn_SD:pwr" -0.000000000000000e+00
"Vn_VDD:v" 1.200000000000000e+00
"Vn_VDD:i" -2.544853136378252e-10
"Vn_VDD:pwr" -3.053823763653902e-10
"Vn_Z:v" 0.000000000000000e+00
"Vn_Z:i" -3.077376738431057e-16
"Vn_Z:pwr" -0.000000000000000e+00
"n_Z" 1.199999494856533e+00
"n_D1" 0.000000000000000e+00
"n_SD" 1.200000000000000e+00
"Vn_D1:n" -7.514514421169208e-14
"Vn_D1:p" 7.514514421169208e-14
"Vn_GND:n" -2.548661501430770e-10
"Vn_GND:p" 2.548661501430770e-10
"Vn_SD:n" 5.106005093495514e-13
"Vn_SD:p" -5.106005093495514e-13
"Vn_VDD:n" 2.544853136378252e-10
"Vn_VDD:p" -2.544853136378252e-10
"Vn_Z:n" 3.077376738431057e-16
"Vn_Z:p" -3.077376738431057e-16
"time" 1.209000000000000e-09
"Vn_D1:v" 0.000000000000000e+00
"Vn_D1:i" 7.519145956062204e-14
"Vn_D1:pwr" 0.000000000000000e+00
"Vn_GND:v" 0.000000000000000e+00
"Vn_GND:i" 2.548663690647301e-10
"Vn_GND:pwr" 0.000000000000000e+00
"Vn_SD:v" 0.000000000000000e+00
"Vn_SD:i" -5.105468030323680e-13
"Vn_SD:pwr" -0.000000000000000e+00
"Vn_VDD:v" 1.200000000000000e+00
"Vn_VDD:i" -2.544861953705462e-10
"Vn_VDD:pwr" -3.053834344446555e-10
"Vn_Z:v" 0.000000000000000e+00
"Vn_Z:i" 2.459687394149924e-16
"Vn_Z:pwr" 0.000000000000000e+00
"n_Z" 1.199999494852153e+00
"n_D1" 0.000000000000000e+00
"n_SD" 1.200000000000000e+00
"Vn_D1:n" -7.519145956062204e-14
"Vn_D1:p" 7.519145956062204e-14
"Vn_GND:n" -2.548663690647301e-10
"Vn_GND:p" 2.548663690647301e-10
"Vn_SD:n" 5.105468030323680e-13
"Vn_SD:p" -5.105468030323680e-13
"Vn_VDD:n" 2.544861953705462e-10
"Vn_VDD:p" -2.544861953705462e-10
"Vn_Z:n" -2.459687394149924e-16
"Vn_Z:p" 2.459687394149924e-16
"time" 1.989000000000000e-09
"Vn_D1:v" 0.000000000000000e+00
"Vn_D1:i" 7.515491631132296e-14
"Vn_D1:pwr" 0.000000000000000e+00
"Vn_GND:v" 0.000000000000000e+00
"Vn_GND:i" 2.548661167592302e-10
"Vn_GND:pwr" 0.000000000000000e+00
"Vn_SD:v" 0.000000000000000e+00
"Vn_SD:i" -5.105894900105836e-13
"Vn_SD:pwr" -0.000000000000000e+00
"Vn_VDD:v" 1.200000000000000e+00
"Vn_VDD:i" -2.544854087183217e-10
"Vn_VDD:pwr" -3.053824904619861e-10
"Vn_Z:v" 0.000000000000000e+00
"Vn_Z:i" -2.025141590471588e-16
"Vn_Z:pwr" -0.000000000000000e+00
"n_Z" 1.199999494856005e+00
"n_D1" 0.000000000000000e+00
"n_SD" 1.200000000000000e+00
"Vn_D1:n" -7.515491631132296e-14
"Vn_D1:p" 7.515491631132296e-14
"Vn_GND:n" -2.548661167592302e-10
"Vn_GND:p" 2.548661167592302e-10
"Vn_SD:n" 5.105894900105836e-13
"Vn_SD:p" -5.105894900105836e-13
"Vn_VDD:n" 2.544854087183217e-10
"Vn_VDD:p" -2.544854087183217e-10
"Vn_Z:n" 2.025141590471588e-16
"Vn_Z:p" -2.025141590471588e-16
"time" 2.769000000000001e-09
"Vn_D1:v" 0.000000000000000e+00
"Vn_D1:i" 7.518463603667668e-14
"Vn_D1:pwr" 0.000000000000000e+00
"Vn_GND:v" 0.000000000000000e+00
"Vn_GND:i" 2.548662435013296e-10
"Vn_GND:pwr" 0.000000000000000e+00
"Vn_SD:v" 0.000000000000000e+00
"Vn_SD:i" -5.105544999455094e-13
"Vn_SD:pwr" -0.000000000000000e+00
"Vn_VDD:v" 1.200000000000000e+00
"Vn_VDD:i" -2.544859751966295e-10
"Vn_VDD:pwr" -3.053831702359554e-10
"Vn_Z:v" 0.000000000000000e+00
"Vn_Z:i" 1.706471284602045e-16
"Vn_Z:pwr" 0.000000000000000e+00
"n_Z" 1.199999494853180e+00
"n_D1" 0.000000000000000e+00
"n_SD" 1.200000000000000e+00
"Vn_D1:n" -7.518463603667668e-14
"Vn_D1:p" 7.518463603667668e-14
"Vn_GND:n" -2.548662435013296e-10
"Vn_GND:p" 2.548662435013296e-10
"Vn_SD:n" 5.105544999455094e-13
"Vn_SD:p" -5.105544999455094e-13
"Vn_VDD:n" 2.544859751966295e-10
"Vn_VDD:p" -2.544859751966295e-10
"Vn_Z:n" -1.706471284602045e-16
"Vn_Z:p" 1.706471284602045e-16
"time" 3.000000000000000e-09
"Vn_D1:v" 0.000000000000000e+00
"Vn_D1:i" 7.516517404576890e-14
"Vn_D1:pwr" 0.000000000000000e+00
"Vn_GND:v" 0.000000000000000e+00
"Vn_GND:i" 2.548661092849211e-10
"Vn_GND:pwr" 0.000000000000000e+00
"Vn_SD:v" 0.000000000000000e+00
"Vn_SD:i" -5.105779016346165e-13
"Vn_SD:pwr" -0.000000000000000e+00
"Vn_VDD:v" 1.200000000000000e+00
"Vn_VDD:i" -2.544855372319784e-10
"Vn_VDD:pwr" -3.053826446783741e-10
"Vn_Z:v" 0.000000000000000e+00
"Vn_Z:i" -8.924158934993084e-17
"Vn_Z:pwr" -0.000000000000000e+00
"n_Z" 1.199999494855317e+00
"n_D1" 0.000000000000000e+00
"n_SD" 1.200000000000000e+00
"Vn_D1:n" -7.516517404576890e-14
"Vn_D1:p" 7.516517404576890e-14
"Vn_GND:n" -2.548661092849211e-10
"Vn_GND:p" 2.548661092849211e-10
"Vn_SD:n" 5.105779016346165e-13
"Vn_SD:p" -5.105779016346165e-13
"Vn_VDD:n" 2.544855372319784e-10
"Vn_VDD:p" -2.544855372319784e-10
"Vn_Z:n" 8.924158934993084e-17
"Vn_Z:p" -8.924158934993084e-17
"time" 3.010000000000000e-09
"Vn_D1:v" 0.000000000000000e+00
"Vn_D1:i" 7.516554527595662e-14
"Vn_D1:pwr" 0.000000000000000e+00
"Vn_GND:v" 0.000000000000000e+00
"Vn_GND:i" 2.548661194072984e-10
"Vn_GND:pwr" 0.000000000000000e+00
"Vn_SD:v" 0.000000000000000e+00
"Vn_SD:i" -5.105770970733814e-13
"Vn_SD:pwr" -0.000000000000000e+00
"Vn_VDD:v" 1.200000000000000e+00
"Vn_VDD:i" -2.544855725736408e-10
"Vn_VDD:pwr" -3.053826870883690e-10
"Vn_Z:v" 0.000000000000000e+00
"Vn_Z:i" -6.681957629943543e-17
"Vn_Z:pwr" -0.000000000000000e+00
"n_Z" 1.199999494855165e+00
"n_D1" 0.000000000000000e+00
"n_SD" 1.200000000000000e+00
"Vn_D1:n" -7.516554527595662e-14
"Vn_D1:p" 7.516554527595662e-14
"Vn_GND:n" -2.548661194072984e-10
"Vn_GND:p" 2.548661194072984e-10
"Vn_SD:n" 5.105770970733814e-13
"Vn_SD:p" -5.105770970733814e-13
"Vn_VDD:n" 2.544855725736408e-10
"Vn_VDD:p" -2.544855725736408e-10
"Vn_Z:n" 6.681957629943543e-17
"Vn_Z:p" -6.681957629943543e-17
"time" 3.030000000000000e-09
"Vn_D1:v" 0.000000000000000e+00
"Vn_D1:i" 7.516732831385264e-14
"Vn_D1:pwr" 0.000000000000000e+00
"Vn_GND:v" 0.000000000000000e+00
"Vn_GND:i" 2.548661295448033e-10
"Vn_GND:pwr" 0.000000000000000e+00
"Vn_SD:v" 0.000000000000000e+00
"Vn_SD:i" -5.105747604140017e-13
"Vn_SD:pwr" -0.000000000000000e+00
"Vn_VDD:v" 1.200000000000000e+00
"Vn_VDD:i" -2.544856111882736e-10
"Vn_VDD:pwr" -3.053827334259283e-10
"Vn_Z:v" 0.000000000000000e+00
"Vn_Z:i" -4.245306824983368e-17
"Vn_Z:pwr" -0.000000000000000e+00
"n_Z" 1.199999494854972e+00
"n_D1" 0.000000000000000e+00
"n_SD" 1.200000000000000e+00
"Vn_D1:n" -7.516732831385264e-14
"Vn_D1:p" 7.516732831385264e-14
"Vn_GND:n" -2.548661295448033e-10
"Vn_GND:p" 2.548661295448033e-10
"Vn_SD:n" 5.105747604140017e-13
"Vn_SD:p" -5.105747604140017e-13
"Vn_VDD:n" 2.544856111882736e-10
"Vn_VDD:p" -2.544856111882736e-10
"Vn_Z:n" 4.245306824983368e-17
"Vn_Z:p" -4.245306824983368e-17
"time" 3.070000000000001e-09
"Vn_D1:v" 0.000000000000000e+00
"Vn_D1:i" 7.516995655147415e-14
"Vn_D1:pwr" 0.000000000000000e+00
"Vn_GND:v" 0.000000000000000e+00
"Vn_GND:i" 2.548661411561527e-10
"Vn_GND:pwr" 0.000000000000000e+00
"Vn_SD:v" 0.000000000000000e+00
"Vn_SD:i" -5.105717365175698e-13
"Vn_SD:pwr" -0.000000000000000e+00
"Vn_VDD:v" 1.200000000000000e+00
"Vn_VDD:i" -2.544856626538627e-10
"Vn_VDD:pwr" -3.053827951846352e-10
"Vn_Z:v" 0.000000000000000e+00
"Vn_Z:i" -1.226181564662286e-17
"Vn_Z:pwr" -0.000000000000000e+00
"n_Z" 1.199999494854723e+00
"n_D1" 0.000000000000000e+00
"n_SD" 1.200000000000000e+00
"Vn_D1:n" -7.516995655147415e-14
"Vn_D1:p" 7.516995655147415e-14
"Vn_GND:n" -2.548661411561527e-10
"Vn_GND:p" 2.548661411561527e-10
"Vn_SD:n" 5.105717365175698e-13
"Vn_SD:p" -5.105717365175698e-13
"Vn_VDD:n" 2.544856626538627e-10
"Vn_VDD:p" -2.544856626538627e-10
"Vn_Z:n" 1.226181564662286e-17
"Vn_Z:p" -1.226181564662286e-17
"time" 3.150000000000003e-09
"Vn_D1:v" 0.000000000000000e+00
"Vn_D1:i" 7.517154372902706e-14
"Vn_D1:pwr" 0.000000000000000e+00
"Vn_GND:v" 0.000000000000000e+00
"Vn_GND:i" 2.548661432283516e-10
"Vn_GND:pwr" 0.000000000000000e+00
"Vn_SD:v" 0.000000000000000e+00
"Vn_SD:i" -5.105700761512164e-13
"Vn_SD:pwr" -0.000000000000000e+00
"Vn_VDD:v" 1.200000000000000e+00
"Vn_VDD:i" -2.544856765905860e-10
"Vn_VDD:pwr" -3.053828119087032e-10
"Vn_Z:v" 0.000000000000000e+00
"Vn_Z:i" 2.410190901663252e-18
"Vn_Z:pwr" 0.000000000000000e+00
"n_Z" 1.199999494854634e+00
"n_D1" 0.000000000000000e+00
"n_SD" 1.200000000000000e+00
"Vn_D1:n" -7.517154372902706e-14
"Vn_D1:p" 7.517154372902706e-14
"Vn_GND:n" -2.548661432283516e-10
"Vn_GND:p" 2.548661432283516e-10
"Vn_SD:n" 5.105700761512164e-13
"Vn_SD:p" -5.105700761512164e-13
"Vn_VDD:n" 2.544856765905860e-10
"Vn_VDD:p" -2.544856765905860e-10
"Vn_Z:n" -2.410190901663252e-18
"Vn_Z:p" 2.410190901663252e-18
"time" 3.310000000000005e-09
"Vn_D1:v" 0.000000000000000e+00
"Vn_D1:i" 7.517119350669899e-14
"Vn_D1:pwr" 0.000000000000000e+00
"Vn_GND:v" 0.000000000000000e+00
"Vn_GND:i" 2.548661337162479e-10
"Vn_GND:pwr" 0.000000000000000e+00
"Vn_SD:v" 0.000000000000000e+00
"Vn_SD:i" -5.105702772511200e-13
"Vn_SD:pwr" -0.000000000000000e+00
"Vn_VDD:v" 1.200000000000000e+00
"Vn_VDD:i" -2.544856659059295e-10
"Vn_VDD:pwr" -3.053827990871154e-10
"Vn_Z:v" 0.000000000000000e+00
"Vn_Z:i" 7.628408405191589e-19
"Vn_Z:pwr" 0.000000000000000e+00
"n_Z" 1.199999494854692e+00
"n_D1" 0.000000000000000e+00
"n_SD" 1.200000000000000e+00
"Vn_D1:n" -7.517119350669899e-14
"Vn_D1:p" 7.517119350669899e-14
"Vn_GND:n" -2.548661337162479e-10
"Vn_GND:p" 2.548661337162479e-10
"Vn_SD:n" 5.105702772511200e-13
"Vn_SD:p" -5.105702772511200e-13
"Vn_VDD:n" 2.544856659059295e-10
"Vn_VDD:p" -2.544856659059295e-10
"Vn_Z:n" -7.628408405191589e-19
"Vn_Z:p" 7.628408405191589e-19
"time" 3.630000000000011e-09
"Vn_D1:v" 0.000000000000000e+00
"Vn_D1:i" 7.517137238428578e-14
"Vn_D1:pwr" 0.000000000000000e+00
"Vn_GND:v" 0.000000000000000e+00
"Vn_GND:i" 2.548661141103825e-10
"Vn_GND:pwr" 0.000000000000000e+00
"Vn_SD:v" 0.000000000000000e+00
"Vn_SD:i" -5.105703353735278e-13
"Vn_SD:pwr" -0.000000000000000e+00
"Vn_VDD:v" 1.200000000000000e+00
"Vn_VDD:i" -2.544856485520663e-10
"Vn_VDD:pwr" -3.053827782624796e-10
"Vn_Z:v" 0.000000000000000e+00
"Vn_Z:i" 1.065046712976983e-18
"Vn_Z:pwr" 0.000000000000000e+00
"n_Z" 1.199999494854759e+00
"n_D1" 0.000000000000000e+00
"n_SD" 1.200000000000000e+00
"Vn_D1:n" -7.517137238428578e-14
"Vn_D1:p" 7.517137238428578e-14
"Vn_GND:n" -2.548661141103825e-10
"Vn_GND:p" 2.548661141103825e-10
"Vn_SD:n" 5.105703353735278e-13
"Vn_SD:p" -5.105703353735278e-13
"Vn_VDD:n" 2.544856485520663e-10
"Vn_VDD:p" -2.544856485520663e-10
"Vn_Z:n" -1.065046712976983e-18
"Vn_Z:p" 1.065046712976983e-18
"time" 4.270000000000022e-09
"Vn_D1:v" 0.000000000000000e+00
"Vn_D1:i" 7.517112314783125e-14
"Vn_D1:pwr" 0.000000000000000e+00
"Vn_GND:v" 0.000000000000000e+00
"Vn_GND:i" 2.548660773937918e-10
"Vn_GND:pwr" 0.000000000000000e+00
"Vn_SD:v" 0.000000000000000e+00
"Vn_SD:i" -5.105703381502993e-13
"Vn_SD:pwr" -0.000000000000000e+00
"Vn_VDD:v" 1.200000000000000e+00
"Vn_VDD:i" -2.544856147522110e-10
"Vn_VDD:pwr" -3.053827377026532e-10
"Vn_Z:v" 0.000000000000000e+00
"Vn_Z:i" 1.204370321125891e-18
"Vn_Z:pwr" 0.000000000000000e+00
"n_Z" 1.199999494854924e+00
"n_D1" 0.000000000000000e+00
"n_SD" 1.200000000000000e+00
"Vn_D1:n" -7.517112314783125e-14
"Vn_D1:p" 7.517112314783125e-14
"Vn_GND:n" -2.548660773937918e-10
"Vn_GND:p" 2.548660773937918e-10
"Vn_SD:n" 5.105703381502993e-13
"Vn_SD:p" -5.105703381502993e-13
"Vn_VDD:n" 2.544856147522110e-10
"Vn_VDD:p" -2.544856147522110e-10
"Vn_Z:n" -1.204370321125891e-18
"Vn_Z:p" 1.204370321125891e-18
"time" 5.050000000000022e-09
"Vn_D1:v" 0.000000000000000e+00
"Vn_D1:i" 7.517146854044121e-14
"Vn_D1:pwr" 0.000000000000000e+00
"Vn_GND:v" 0.000000000000000e+00
"Vn_GND:i" 2.548660321801586e-10
"Vn_GND:pwr" 0.000000000000000e+00
"Vn_SD:v" 0.000000000000000e+00
"Vn_SD:i" -5.105702270781934e-13
"Vn_SD:pwr" -0.000000000000000e+00
"Vn_VDD:v" 1.200000000000000e+00
"Vn_VDD:i" -2.544855644127306e-10
"Vn_VDD:pwr" -3.053826772952767e-10
"Vn_Z:v" 0.000000000000000e+00
"Vn_Z:i" 1.024513524328284e-18
"Vn_Z:pwr" 0.000000000000000e+00
"n_Z" 1.199999494855121e+00
"n_D1" 0.000000000000000e+00
"n_SD" 1.200000000000000e+00
"Vn_D1:n" -7.517146854044121e-14
"Vn_D1:p" 7.517146854044121e-14
"Vn_GND:n" -2.548660321801586e-10
"Vn_GND:p" 2.548660321801586e-10
"Vn_SD:n" 5.105702270781934e-13
"Vn_SD:p" -5.105702270781934e-13
"Vn_VDD:n" 2.544855644127306e-10
"Vn_VDD:p" -2.544855644127306e-10
"Vn_Z:n" -1.024513524328284e-18
"Vn_Z:p" 1.024513524328284e-18
"time" 5.830000000000022e-09
"Vn_D1:v" 0.000000000000000e+00
"Vn_D1:i" 7.517112767996714e-14
"Vn_D1:pwr" 0.000000000000000e+00
"Vn_GND:v" 0.000000000000000e+00
"Vn_GND:i" 2.548659869832320e-10
"Vn_GND:pwr" 0.000000000000000e+00
"Vn_SD:v" 0.000000000000000e+00
"Vn_SD:i" -5.105703312836613e-13
"Vn_SD:pwr" -0.000000000000000e+00
"Vn_VDD:v" 1.200000000000000e+00
"Vn_VDD:i" -2.544855196249224e-10
"Vn_VDD:pwr" -3.053826235499069e-10
"Vn_Z:v" 0.000000000000000e+00
"Vn_Z:i" 1.335051615347774e-18
"Vn_Z:pwr" 0.000000000000000e+00
"n_Z" 1.199999494855331e+00
"n_D1" 0.000000000000000e+00
"n_SD" 1.200000000000000e+00
"Vn_D1:n" -7.517112767996714e-14
"Vn_D1:p" 7.517112767996714e-14
"Vn_GND:n" -2.548659869832320e-10
"Vn_GND:p" 2.548659869832320e-10
"Vn_SD:n" 5.105703312836613e-13
"Vn_SD:p" -5.105703312836613e-13
"Vn_VDD:n" 2.544855196249224e-10
"Vn_VDD:p" -2.544855196249224e-10
"Vn_Z:n" -1.335051615347774e-18
"Vn_Z:p" 1.335051615347774e-18
"time" 6.010000000000000e-09
"Vn_D1:v" 0.000000000000000e+00
"Vn_D1:i" 7.517142980507010e-14
"Vn_D1:pwr" 0.000000000000000e+00
"Vn_GND:v" 0.000000000000000e+00
"Vn_GND:i" 2.548659762837006e-10
"Vn_GND:pwr" 0.000000000000000e+00
"Vn_SD:v" 0.000000000000000e+00
"Vn_SD:i" -5.105703010465260e-13
"Vn_SD:pwr" -0.000000000000000e+00
"Vn_VDD:v" 1.200000000000000e+00
"Vn_VDD:i" -2.544855084468767e-10
"Vn_VDD:pwr" -3.053826101362520e-10
"Vn_Z:v" 0.000000000000000e+00
"Vn_Z:i" 1.490884604048339e-19
"Vn_Z:pwr" 0.000000000000000e+00
"n_Z" 1.199999494855361e+00
"n_D1" 0.000000000000000e+00
"n_SD" 1.200000000000000e+00
"Vn_D1:n" -7.517142980507010e-14
"Vn_D1:p" 7.517142980507010e-14
"Vn_GND:n" -2.548659762837006e-10
"Vn_GND:p" 2.548659762837006e-10
"Vn_SD:n" 5.105703010465260e-13
"Vn_SD:p" -5.105703010465260e-13
"Vn_VDD:n" 2.544855084468767e-10
"Vn_VDD:p" -2.544855084468767e-10
"Vn_Z:n" -1.490884604048339e-19
"Vn_Z:p" 1.490884604048339e-19
"time" 6.019999795400000e-09
"Vn_D1:v" 0.000000000000000e+00
"Vn_D1:i" 7.517114812183912e-14
"Vn_D1:pwr" 0.000000000000000e+00
"Vn_GND:v" 0.000000000000000e+00
"Vn_GND:i" 2.548659758832164e-10
"Vn_GND:pwr" 0.000000000000000e+00
"Vn_SD:v" 0.000000000000000e+00
"Vn_SD:i" -5.105703210798443e-13
"Vn_SD:pwr" -0.000000000000000e+00
"Vn_VDD:v" 1.200000000000000e+00
"Vn_VDD:i" -2.544855095702316e-10
"Vn_VDD:pwr" -3.053826114842779e-10
"Vn_Z:v" 0.000000000000000e+00
"Vn_Z:i" 1.269288781632779e-18
"Vn_Z:pwr" 0.000000000000000e+00
"n_Z" 1.199999494855364e+00
"n_D1" 0.000000000000000e+00
"n_SD" 1.200000000000000e+00
"Vn_D1:n" -7.517114812183912e-14
"Vn_D1:p" 7.517114812183912e-14
"Vn_GND:n" -2.548659758832164e-10
"Vn_GND:p" 2.548659758832164e-10
"Vn_SD:n" 5.105703210798443e-13
"Vn_SD:p" -5.105703210798443e-13
"Vn_VDD:n" 2.544855095702316e-10
"Vn_VDD:p" -2.544855095702316e-10
"Vn_Z:n" -1.269288781632779e-18
"Vn_Z:p" 1.269288781632779e-18
"time" 6.020000000000000e-09
"Vn_D1:v" 0.000000000000000e+00
"Vn_D1:i" -1.348174194061184e-06
"Vn_D1:pwr" -0.000000000000000e+00
"Vn_GND:v" 0.000000000000000e+00
"Vn_GND:i" 2.421593904390730e-07
"Vn_GND:pwr" 0.000000000000000e+00
"Vn_SD:v" 0.000000000000000e+00
"Vn_SD:i" 5.440673735764096e-11
"Vn_SD:pwr" 0.000000000000000e+00
"Vn_VDD:v" 1.200000000000000e+00
"Vn_VDD:i" 1.105960116254425e-06
"Vn_VDD:pwr" 1.327152139505310e-06
"Vn_Z:v" 0.000000000000000e+00
"Vn_Z:i" 2.244845107068758e-13
"Vn_Z:pwr" 0.000000000000000e+00
"n_Z" 1.199999494855374e+00
"n_D1" 2.456580613633633e-07
"n_SD" 1.200000000000000e+00
"Vn_D1:n" 1.348174194061184e-06
"Vn_D1:p" -1.348174194061184e-06
"Vn_GND:n" -2.421593904390730e-07
"Vn_GND:p" 2.421593904390730e-07
"Vn_SD:n" -5.440673735764096e-11
"Vn_SD:p" 5.440673735764096e-11
"Vn_VDD:n" -1.105960116254425e-06
"Vn_VDD:p" 1.105960116254425e-06
"Vn_Z:n" -2.244845107068758e-13
"Vn_Z:p" 2.244845107068758e-13
"time" 6.020000409200001e-09
"Vn_D1:v" 0.000000000000000e+00
"Vn_D1:i" -1.349430106524602e-06
"Vn_D1:pwr" -0.000000000000000e+00
"Vn_GND:v" 0.000000000000000e+00
"Vn_GND:i" 2.423764577221881e-07
"Vn_GND:pwr" 0.000000000000000e+00
"Vn_SD:v" 0.000000000000000e+00
"Vn_SD:i" 1.639639731634424e-10
"Vn_SD:pwr" 0.000000000000000e+00
"Vn_VDD:v" 1.200000000000000e+00
"Vn_VDD:i" 1.106888071000379e-06
"Vn_VDD:pwr" 1.328265685200455e-06
"Vn_Z:v" 0.000000000000000e+00
"Vn_Z:i" 1.559987416422511e-12
"Vn_Z:pwr" 0.000000000000000e+00
"n_Z" 1.199999494855519e+00
"n_D1" 7.369741840900898e-07
"n_SD" 1.200000000000000e+00
"Vn_D1:n" 1.349430106524602e-06
"Vn_D1:p" -1.349430106524602e-06
"Vn_GND:n" -2.423764577221881e-07
"Vn_GND:p" 2.423764577221881e-07
"Vn_SD:n" -1.639639731634424e-10
"Vn_SD:p" 1.639639731634424e-10
"Vn_VDD:n" -1.106888071000379e-06
"Vn_VDD:p" 1.106888071000379e-06
"Vn_Z:n" -1.559987416422511e-12
"Vn_Z:p" 1.559987416422511e-12
"time" 6.020001227600002e-09
"Vn_D1:v" 0.000000000000000e+00
"Vn_D1:i" -1.351934668152746e-06
"Vn_D1:pwr" -0.000000000000000e+00
"Vn_GND:v" 0.000000000000000e+00
"Vn_GND:i" 2.428094184570307e-07
"Vn_GND:pwr" 0.000000000000000e+00
"Vn_SD:v" 0.000000000000000e+00
"Vn_SD:i" 3.825232157888247e-10
"Vn_SD:pwr" 0.000000000000000e+00
"Vn_VDD:v" 1.200000000000000e+00
"Vn_VDD:i" 1.108736688155670e-06
"Vn_VDD:pwr" 1.330484025786804e-06
"Vn_Z:v" 0.000000000000000e+00
"Vn_Z:i" 5.981561526143714e-12
"Vn_Z:pwr" 0.000000000000000e+00
"n_Z" 1.199999494856220e+00
"n_D1" 1.719606429543543e-06
"n_SD" 1.200000000000000e+00
"Vn_D1:n" 1.351934668152746e-06
"Vn_D1:p" -1.351934668152746e-06
"Vn_GND:n" -2.428094184570307e-07
"Vn_GND:p" 2.428094184570307e-07
"Vn_SD:n" -3.825232157888247e-10
"Vn_SD:p" 3.825232157888247e-10
"Vn_VDD:n" -1.108736688155670e-06
"Vn_VDD:p" 1.108736688155670e-06
"Vn_Z:n" -5.981561526143714e-12
"Vn_Z:p" 5.981561526143714e-12
"time" 6.020002864400004e-09
"Vn_D1:v" 0.000000000000000e+00
"Vn_D1:i" -1.356900225613048e-06
"Vn_D1:pwr" -0.000000000000000e+00
"Vn_GND:v" 0.000000000000000e+00
"Vn_GND:i" 2.436683926599240e-07
"Vn_GND:pwr" 0.000000000000000e+00
"Vn_SD:v" 0.000000000000000e+00
"Vn_SD:i" 8.163289646124403e-10
"Vn_SD:pwr" 0.000000000000000e+00
"Vn_VDD:v" 1.200000000000000e+00
"Vn_VDD:i" 1.112390385606122e-06
"Vn_VDD:pwr" 1.334868462727347e-06
"Vn_Z:v" 0.000000000000000e+00
"Vn_Z:i" 2.506380329851820e-11
"Vn_Z:pwr" 0.000000000000000e+00
"n_Z" 1.199999494861995e+00
"n_D1" 3.684870920450449e-06
"n_SD" 1.200000000000000e+00
"Vn_D1:n" 1.356900225613048e-06
"Vn_D1:p" -1.356900225613048e-06
"Vn_GND:n" -2.436683926599240e-07
"Vn_GND:p" 2.436683926599240e-07
"Vn_SD:n" -8.163289646124403e-10
"Vn_SD:p" 8.163289646124403e-10
"Vn_VDD:n" -1.112390385606122e-06
"Vn_VDD:p" 1.112390385606122e-06
"Vn_Z:n" -2.506380329851820e-11
"Vn_Z:p" 2.506380329851820e-11
"time" 6.020006138000008e-09
"Vn_D1:v" 0.000000000000000e+00
"Vn_D1:i" -1.366660576232032e-06
"Vn_D1:pwr" -0.000000000000000e+00
"Vn_GND:v" 0.000000000000000e+00
"Vn_GND:i" 2.453587869791380e-07
"Vn_GND:pwr" 0.000000000000000e+00
"Vn_SD:v" 0.000000000000000e+00
"Vn_SD:i" 1.670829360835805e-09
"Vn_SD:pwr" 0.000000000000000e+00
"Vn_VDD:v" 1.200000000000000e+00
"Vn_VDD:i" 1.119529249811301e-06
"Vn_VDD:pwr" 1.343435099773561e-06
"Vn_Z:v" 0.000000000000000e+00
"Vn_Z:i" 1.016547117702958e-10
"Vn_Z:pwr" 0.000000000000000e+00
"n_Z" 1.199999494909134e+00
"n_D1" 7.615399902264261e-06
"n_SD" 1.200000000000000e+00
"Vn_D1:n" 1.366660576232032e-06
"Vn_D1:p" -1.366660576232032e-06
"Vn_GND:n" -2.453587869791380e-07
"Vn_GND:p" 2.453587869791380e-07
"Vn_SD:n" -1.670829360835805e-09
"Vn_SD:p" 1.670829360835805e-09
"Vn_VDD:n" -1.119529249811301e-06
"Vn_VDD:p" 1.119529249811301e-06
"Vn_Z:n" -1.016547117702958e-10
"Vn_Z:p" 1.016547117702958e-10
"time" 6.020012685200016e-09
"Vn_D1:v" 0.000000000000000e+00
"Vn_D1:i" -1.385521108751019e-06
"Vn_D1:pwr" -0.000000000000000e+00
"Vn_GND:v" 0.000000000000000e+00
"Vn_GND:i" 2.486320051715000e-07
"Vn_GND:pwr" 0.000000000000000e+00
"Vn_SD:v" 0.000000000000000e+00
"Vn_SD:i" 3.328462725968078e-09
"Vn_SD:pwr" 0.000000000000000e+00
"Vn_VDD:v" 1.200000000000000e+00
"Vn_VDD:i" 1.133170406704685e-06
"Vn_VDD:pwr" 1.359804488045622e-06
"Vn_Z:v" 0.000000000000000e+00
"Vn_Z:i" 3.901796334177900e-10
"Vn_Z:pwr" 0.000000000000000e+00
"n_Z" 1.199999495275059e+00
"n_D1" 1.547645786589189e-05
"n_SD" 1.200000000000000e+00
"Vn_D1:n" 1.385521108751019e-06
"Vn_D1:p" -1.385521108751019e-06
"Vn_GND:n" -2.486320051715000e-07
"Vn_GND:p" 2.486320051715000e-07
"Vn_SD:n" -3.328462725968078e-09
"Vn_SD:p" 3.328462725968078e-09
"Vn_VDD:n" -1.133170406704685e-06
"Vn_VDD:p" 1.133170406704685e-06
"Vn_Z:n" -3.901796334177900e-10
"Vn_Z:p" 3.901796334177900e-10
"time" 6.020025779600032e-09
"Vn_D1:v" 0.000000000000000e+00
"Vn_D1:i" -1.413780300272140e-06
"Vn_D1:pwr" -0.000000000000000e+00
"Vn_GND:v" 0.000000000000000e+00
"Vn_GND:i" 2.547809809613193e-07
"Vn_GND:pwr" 0.000000000000000e+00
"Vn_SD:v" 0.000000000000000e+00
"Vn_SD:i" 6.448154471379517e-09
"Vn_SD:pwr" 0.000000000000000e+00
"Vn_VDD:v" 1.200000000000000e+00
"Vn_VDD:i" 1.151161822186276e-06
"Vn_VDD:pwr" 1.381394186623532e-06
"Vn_Z:v" 0.000000000000000e+00
"Vn_Z:i" 1.389287380603839e-09
"Vn_Z:pwr" 0.000000000000000e+00
"n_Z" 1.199999497922906e+00
"n_D1" 3.119857379314713e-05
"n_SD" 1.200000000000000e+00
"Vn_D1:n" 1.413780300272140e-06
"Vn_D1:p" -1.413780300272140e-06
"Vn_GND:n" -2.547809809613193e-07
"Vn_GND:p" 2.547809809613193e-07
"Vn_SD:n" -6.448154471379517e-09
"Vn_SD:p" 6.448154471379517e-09
"Vn_VDD:n" -1.151161822186276e-06
"Vn_VDD:p" 1.151161822186276e-06
"Vn_Z:n" -1.389287380603839e-09
"Vn_Z:p" 1.389287380603839e-09
"time" 6.020051968400065e-09
"Vn_D1:v" 0.000000000000000e+00
"Vn_D1:i" -1.463281190932562e-06
"Vn_D1:pwr" -0.000000000000000e+00
"Vn_GND:v" 0.000000000000000e+00
"Vn_GND:i" 2.656654363875536e-07
"Vn_GND:pwr" 0.000000000000000e+00
"Vn_SD:v" 0.000000000000000e+00
"Vn_SD:i" 1.198580343877649e-08
"Vn_SD:pwr" 0.000000000000000e+00
"Vn_VDD:v" 1.200000000000000e+00
"Vn_VDD:i" 1.181209076293201e-06
"Vn_VDD:pwr" 1.417450891551842e-06
"Vn_Z:v" 0.000000000000000e+00
"Vn_Z:i" 4.420820255943121e-09
"Vn_Z:pwr" 0.000000000000000e+00
"n_Z" 1.199999515213786e+00
"n_D1" 6.264280564765764e-05
"n_SD" 1.200000000000000e+00
"Vn_D1:n" 1.463281190932562e-06
"Vn_D1:p" -1.463281190932562e-06
"Vn_GND:n" -2.656654363875536e-07
"Vn_GND:p" 2.656654363875536e-07
"Vn_SD:n" -1.198580343877649e-08
"Vn_SD:p" 1.198580343877649e-08
"Vn_VDD:n" -1.181209076293201e-06
"Vn_VDD:p" 1.181209076293201e-06
"Vn_Z:n" -4.420820255943121e-09
"Vn_Z:p" 4.420820255943121e-09
"time" 6.020104346000130e-09
"Vn_D1:v" 0.000000000000000e+00
"Vn_D1:i" -1.554580198000449e-06
"Vn_D1:pwr" -0.000000000000000e+00
"Vn_GND:v" 0.000000000000000e+00
"Vn_GND:i" 2.827205704716728e-07
"Vn_GND:pwr" 0.000000000000000e+00
"Vn_SD:v" 0.000000000000000e+00
"Vn_SD:i" 2.077762154300526e-08
"Vn_SD:pwr" 0.000000000000000e+00