HEADER
"PSFversion" "1.00"
"simulator" "spectre"
"version" "10.1.1.164.isr11"
"date" "3:01:57 PM, Fri Oct 17, 2014"
"design" "* Spectre Timing Acquisition"
"analysis type" "tran"
"analysis name" "transient1-007_transient1"
"analysis description" "Transient Analysis `transient1-007_transient1': time = (0 s -> 39 ns)"
"xVecSorted" "ascending"
"tolerance.relative" 0.00100000
"start" 0.00000
"outputstart" 0.00000
"stop" 3.90000e-08
"step" 3.90000e-11
"maxstep" 7.80000e-10
"ic" "all"
"useprevic" "no"
"skipdc" "no"
"reltol" 0.00100000
"abstol(V)" 1.00000e-06
"abstol(I)" 1.00000e-12
"temp" 25.0000
"tnom" 27.0000
"tempeffects" "all"
"errpreset" "moderate"
"method" "traponly"
"lteratio" 3.50000
"relref" "sigglobal"
"cmin" 0.00000
"gmin" 1.00000e-12
TYPE
"sweep" FLOAT DOUBLE PROP(
"key" "sweep"
)
"Tau" FLOAT DOUBLE PROP(
"units" "N*m"
"key" "node"
"tolerance" 1.00000e-06
)
"Alpha" FLOAT DOUBLE PROP(
"units" "rads/s^2"
"key" "node"
"tolerance" 1.00000e-06
)
"Omega" FLOAT DOUBLE PROP(
"units" "rads/s"
"key" "node"
"tolerance" 1.00000e-06
)
"Theta" FLOAT DOUBLE PROP(
"units" "rads"
"key" "node"
"tolerance" 1.00000e-06
)
"F" FLOAT DOUBLE PROP(
"units" "N"
"key" "node"
"tolerance" 1.00000e-06
)
"Imp" FLOAT DOUBLE PROP(
"units" "m/s^3"
"key" "node"
"tolerance" 1.00000e-06
)
"Acc" FLOAT DOUBLE PROP(
"units" "m/s^2"
"key" "node"
"tolerance" 1.00000e-06
)
"Vel" FLOAT DOUBLE PROP(
"units" "m/s"
"key" "node"
"tolerance" 1.00000e-06
)
"Pos" FLOAT DOUBLE PROP(
"units" "m"
"key" "node"
"tolerance" 1.00000e-06
)
"Phi" FLOAT DOUBLE PROP(
"units" "Wb"
"key" "node"
"tolerance" 1.00000e-09
)
"Q" FLOAT DOUBLE PROP(
"units" "coul"
"key" "node"
"tolerance" 1.00000e-14
)
"V" FLOAT DOUBLE PROP(
"units" "V"
"key" "node"
"tolerance" 1.00000e-06
)
"I" FLOAT DOUBLE PROP(
"units" "A"
"key" "branch"
"tolerance" 1.00000e-12
)
"MMF" FLOAT DOUBLE PROP(
"units" "A*turn"
"key" "node"
"tolerance" 1.00000e-12
)
"Wb" FLOAT DOUBLE PROP(
"units" "Wb"
"key" "node"
"tolerance" 1.00000e-09
)
"Temp" FLOAT DOUBLE PROP(
"units" "C"
"key" "node"
"tolerance" 0.000100000
)
"Pwr" FLOAT DOUBLE PROP(
"units" "W"
"key" "node"
"tolerance" 1.00000e-09
)
"U" FLOAT DOUBLE PROP(
"units" ""
"key" "node"
"tolerance" 1.00000e-06
)
"V/Sec" FLOAT DOUBLE PROP(
"units" "V/s"
"key" "node"
"tolerance" 0.000100000
)
"I/Sec" FLOAT DOUBLE PROP(
"units" "A/s"
"key" "node"
"tolerance" 1.00000e-06
)
"1/Sec" FLOAT DOUBLE PROP(
"units" "1/s"
"key" "node"
"tolerance" 0.000100000
)
"HOD" FLOAT DOUBLE PROP(
"units" ""
"key" "node"
"tolerance" 0.0100000
)
"A" FLOAT DOUBLE PROP(
"key" "inst"
)
"W" FLOAT DOUBLE PROP(
"key" "inst"
)
SWEEP
"time" "sweep" PROP(
"sweep_direction" 0
"units" "s"
"plot" 0
"grid" 1
)
TRACE
"Vn_D1:v" "V" PROP(
"units" "V"
)
"Vn_D1:i" "A" PROP(
"units" "A"
)
"Vn_D1:pwr" "W" PROP(
"units" "W"
)
"Vn_GND:v" "V" PROP(
"units" "V"
)
"Vn_GND:i" "A" PROP(
"units" "A"
)
"Vn_GND:pwr" "W" PROP(
"units" "W"
)
"Vn_SD:v" "V" PROP(
"units" "V"
)
"Vn_SD:i" "A" PROP(
"units" "A"
)
"Vn_SD:pwr" "W" PROP(
"units" "W"
)
"Vn_VDD:v" "V" PROP(
"units" "V"
)
"Vn_VDD:i" "A" PROP(
"units" "A"
)
"Vn_VDD:pwr" "W" PROP(
"units" "W"
)
"Vn_Z:v" "V" PROP(
"units" "V"
)
"Vn_Z:i" "A" PROP(
"units" "A"
)
"Vn_Z:pwr" "W" PROP(
"units" "W"
)
"n_Z" "V"
"n_D1" "V"
"n_SD" "V"
"Vn_D1:n" "I"
"Vn_D1:p" "I"
"Vn_GND:n" "I"
"Vn_GND:p" "I"
"Vn_SD:n" "I"
"Vn_SD:p" "I"
"Vn_VDD:n" "I"
"Vn_VDD:p" "I"
"Vn_Z:n" "I"
"Vn_Z:p" "I"
VALUE
"time" 0.000000000000000e+00
"Vn_D1:v" 0.000000000000000e+00
"Vn_D1:i" 7.517119452868265e-14
"Vn_D1:pwr" 0.000000000000000e+00
"Vn_GND:v" 0.000000000000000e+00
"Vn_GND:i" 2.548493107915440e-10
"Vn_GND:pwr" 0.000000000000000e+00
"Vn_SD:v" 0.000000000000000e+00
"Vn_SD:i" -5.105704018311278e-13
"Vn_SD:pwr" -0.000000000000000e+00
"Vn_VDD:v" 1.200000000000000e+00
"Vn_VDD:i" -2.544688430805069e-10
"Vn_VDD:pwr" -3.053626116966083e-10
"Vn_Z:v" 0.000000000000000e+00
"Vn_Z:i" 0.000000000000000e+00
"Vn_Z:pwr" 0.000000000000000e+00
"n_Z" 1.199999494927445e+00
"n_D1" 0.000000000000000e+00
"n_SD" 1.200000000000000e+00
"Vn_D1:n" -7.517119452868265e-14
"Vn_D1:p" 7.517119452868265e-14
"Vn_GND:n" -2.548493107915440e-10
"Vn_GND:p" 2.548493107915440e-10
"Vn_SD:n" 5.105704018311278e-13
"Vn_SD:p" -5.105704018311278e-13
"Vn_VDD:n" 2.544688430805069e-10
"Vn_VDD:p" -2.544688430805069e-10
"Vn_Z:n" 0.000000000000000e+00
"Vn_Z:p" 0.000000000000000e+00
"time" 3.900000000000000e-11
"Vn_D1:v" 0.000000000000000e+00
"Vn_D1:i" 7.487395684264973e-14
"Vn_D1:pwr" 0.000000000000000e+00
"Vn_GND:v" 0.000000000000000e+00
"Vn_GND:i" 2.548644059676876e-10
"Vn_GND:pwr" 0.000000000000000e+00
"Vn_SD:v" 0.000000000000000e+00
"Vn_SD:i" -5.109415678998241e-13
"Vn_SD:pwr" -0.000000000000000e+00
"Vn_VDD:v" 1.200000000000000e+00
"Vn_VDD:i" -2.544778553890593e-10
"Vn_VDD:pwr" -3.053734264668711e-10
"Vn_Z:v" 0.000000000000000e+00
"Vn_Z:i" -5.414463231993134e-15
"Vn_Z:pwr" -0.000000000000000e+00
"n_Z" 1.199999494891654e+00
"n_D1" 0.000000000000000e+00
"n_SD" 1.200000000000000e+00
"Vn_D1:n" -7.487395684264973e-14
"Vn_D1:p" 7.487395684264973e-14
"Vn_GND:n" -2.548644059676876e-10
"Vn_GND:p" 2.548644059676876e-10
"Vn_SD:n" 5.109415678998241e-13
"Vn_SD:p" -5.109415678998241e-13
"Vn_VDD:n" 2.544778553890593e-10
"Vn_VDD:p" -2.544778553890593e-10
"Vn_Z:n" 5.414463231993134e-15
"Vn_Z:p" -5.414463231993134e-15
"time" 1.170000000000000e-10
"Vn_D1:v" 0.000000000000000e+00
"Vn_D1:i" 7.504670725906184e-14
"Vn_D1:pwr" 0.000000000000000e+00
"Vn_GND:v" 0.000000000000000e+00
"Vn_GND:i" 2.548656855533709e-10
"Vn_GND:pwr" 0.000000000000000e+00
"Vn_SD:v" 0.000000000000000e+00
"Vn_SD:i" -5.107136555519602e-13
"Vn_SD:pwr" -0.000000000000000e+00
"Vn_VDD:v" 1.200000000000000e+00
"Vn_VDD:i" -2.544830862284002e-10
"Vn_VDD:pwr" -3.053797034740802e-10
"Vn_Z:v" 0.000000000000000e+00
"Vn_Z:i" -1.863876400346882e-15
"Vn_Z:pwr" -0.000000000000000e+00
"n_Z" 1.199999494867013e+00
"n_D1" 0.000000000000000e+00
"n_SD" 1.200000000000000e+00
"Vn_D1:n" -7.504670725906184e-14
"Vn_D1:p" 7.504670725906184e-14
"Vn_GND:n" -2.548656855533709e-10
"Vn_GND:p" 2.548656855533709e-10
"Vn_SD:n" 5.107136555519602e-13
"Vn_SD:p" -5.107136555519602e-13
"Vn_VDD:n" 2.544830862284002e-10
"Vn_VDD:p" -2.544830862284002e-10
"Vn_Z:n" 1.863876400346882e-15
"Vn_Z:p" -1.863876400346882e-15
"time" 2.730000000000000e-10
"Vn_D1:v" 0.000000000000000e+00
"Vn_D1:i" 7.520773582181542e-14
"Vn_D1:pwr" 0.000000000000000e+00
"Vn_GND:v" 0.000000000000000e+00
"Vn_GND:i" 2.548665062084918e-10
"Vn_GND:pwr" 0.000000000000000e+00
"Vn_SD:v" 0.000000000000000e+00
"Vn_SD:i" -5.105282000653739e-13
"Vn_SD:pwr" -0.000000000000000e+00
"Vn_VDD:v" 1.200000000000000e+00
"Vn_VDD:i" -2.544866885027511e-10
"Vn_VDD:pwr" -3.053840262033014e-10
"Vn_Z:v" 0.000000000000000e+00
"Vn_Z:i" 5.704449906667466e-16
"Vn_Z:pwr" 0.000000000000000e+00
"n_Z" 1.199999494849914e+00
"n_D1" 0.000000000000000e+00
"n_SD" 1.200000000000000e+00
"Vn_D1:n" -7.520773582181542e-14
"Vn_D1:p" 7.520773582181542e-14
"Vn_GND:n" -2.548665062084918e-10
"Vn_GND:p" 2.548665062084918e-10
"Vn_SD:n" 5.105282000653739e-13
"Vn_SD:p" -5.105282000653739e-13
"Vn_VDD:n" 2.544866885027511e-10
"Vn_VDD:p" -2.544866885027511e-10
"Vn_Z:n" -5.704449906667466e-16
"Vn_Z:p" 5.704449906667466e-16
"time" 5.850000000000002e-10
"Vn_D1:v" 0.000000000000000e+00
"Vn_D1:i" 7.515113352360849e-14
"Vn_D1:pwr" 0.000000000000000e+00
"Vn_GND:v" 0.000000000000000e+00
"Vn_GND:i" 2.548661798856460e-10
"Vn_GND:pwr" 0.000000000000000e+00
"Vn_SD:v" 0.000000000000000e+00
"Vn_SD:i" -5.105936789948928e-13
"Vn_SD:pwr" -0.000000000000000e+00
"Vn_VDD:v" 1.200000000000000e+00
"Vn_VDD:i" -2.544853382806971e-10
"Vn_VDD:pwr" -3.053824059368365e-10
"Vn_Z:v" 0.000000000000000e+00
"Vn_Z:i" -3.284836666186032e-16
"Vn_Z:pwr" -0.000000000000000e+00
"n_Z" 1.199999494856311e+00
"n_D1" 0.000000000000000e+00
"n_SD" 1.200000000000000e+00
"Vn_D1:n" -7.515113352360849e-14
"Vn_D1:p" 7.515113352360849e-14
"Vn_GND:n" -2.548661798856460e-10
"Vn_GND:p" 2.548661798856460e-10
"Vn_SD:n" 5.105936789948928e-13
"Vn_SD:p" -5.105936789948928e-13
"Vn_VDD:n" 2.544853382806971e-10
"Vn_VDD:p" -2.544853382806971e-10
"Vn_Z:n" 3.284836666186032e-16
"Vn_Z:p" -3.284836666186032e-16
"time" 1.209000000000000e-09
"Vn_D1:v" 0.000000000000000e+00
"Vn_D1:i" 7.518622366142920e-14
"Vn_D1:pwr" 0.000000000000000e+00
"Vn_GND:v" 0.000000000000000e+00
"Vn_GND:i" 2.548663430984354e-10
"Vn_GND:pwr" 0.000000000000000e+00
"Vn_SD:v" 0.000000000000000e+00
"Vn_SD:i" -5.105528752557040e-13
"Vn_SD:pwr" -0.000000000000000e+00
"Vn_VDD:v" 1.200000000000000e+00
"Vn_VDD:i" -2.544861630439361e-10
"Vn_VDD:pwr" -3.053833956527233e-10
"Vn_Z:v" 0.000000000000000e+00
"Vn_Z:i" 2.541343578802890e-16
"Vn_Z:pwr" 0.000000000000000e+00
"n_Z" 1.199999494852380e+00
"n_D1" 0.000000000000000e+00
"n_SD" 1.200000000000000e+00
"Vn_D1:n" -7.518622366142920e-14
"Vn_D1:p" 7.518622366142920e-14
"Vn_GND:n" -2.548663430984354e-10
"Vn_GND:p" 2.548663430984354e-10
"Vn_SD:n" 5.105528752557040e-13
"Vn_SD:p" -5.105528752557040e-13
"Vn_VDD:n" 2.544861630439361e-10
"Vn_VDD:p" -2.544861630439361e-10
"Vn_Z:n" -2.541343578802890e-16
"Vn_Z:p" 2.541343578802890e-16
"time" 1.989000000000000e-09
"Vn_D1:v" 0.000000000000000e+00
"Vn_D1:i" 7.515962905892139e-14
"Vn_D1:pwr" 0.000000000000000e+00
"Vn_GND:v" 0.000000000000000e+00
"Vn_GND:i" 2.548661401533356e-10
"Vn_GND:pwr" 0.000000000000000e+00
"Vn_SD:v" 0.000000000000000e+00
"Vn_SD:i" -5.105839641293210e-13
"Vn_SD:pwr" -0.000000000000000e+00
"Vn_VDD:v" 1.200000000000000e+00
"Vn_VDD:i" -2.544854463955155e-10
"Vn_VDD:pwr" -3.053825356746185e-10
"Vn_Z:v" 0.000000000000000e+00
"Vn_Z:i" -2.027626578853957e-16
"Vn_Z:pwr" -0.000000000000000e+00
"n_Z" 1.199999494855775e+00
"n_D1" 0.000000000000000e+00
"n_SD" 1.200000000000000e+00
"Vn_D1:n" -7.515962905892139e-14
"Vn_D1:p" 7.515962905892139e-14
"Vn_GND:n" -2.548661401533356e-10
"Vn_GND:p" 2.548661401533356e-10
"Vn_SD:n" 5.105839641293210e-13
"Vn_SD:p" -5.105839641293210e-13
"Vn_VDD:n" 2.544854463955155e-10
"Vn_VDD:p" -2.544854463955155e-10
"Vn_Z:n" 2.027626578853957e-16
"Vn_Z:p" -2.027626578853957e-16
"time" 2.769000000000001e-09
"Vn_D1:v" 0.000000000000000e+00
"Vn_D1:i" 7.518041500900992e-14
"Vn_D1:pwr" 0.000000000000000e+00
"Vn_GND:v" 0.000000000000000e+00
"Vn_GND:i" 2.548662225271435e-10
"Vn_GND:pwr" 0.000000000000000e+00
"Vn_SD:v" 0.000000000000000e+00
"Vn_SD:i" -5.105595024838190e-13
"Vn_SD:pwr" -0.000000000000000e+00
"Vn_VDD:v" 1.200000000000000e+00
"Vn_VDD:i" -2.544859426596946e-10
"Vn_VDD:pwr" -3.053831311916336e-10
"Vn_Z:v" 0.000000000000000e+00
"Vn_Z:i" 1.666502707875120e-16
"Vn_Z:pwr" 0.000000000000000e+00
"n_Z" 1.199999494853389e+00
"n_D1" 0.000000000000000e+00
"n_SD" 1.200000000000000e+00
"Vn_D1:n" -7.518041500900992e-14
"Vn_D1:p" 7.518041500900992e-14
"Vn_GND:n" -2.548662225271435e-10
"Vn_GND:p" 2.548662225271435e-10
"Vn_SD:n" 5.105595024838190e-13
"Vn_SD:p" -5.105595024838190e-13
"Vn_VDD:n" 2.544859426596946e-10
"Vn_VDD:p" -2.544859426596946e-10
"Vn_Z:n" -1.666502707875120e-16
"Vn_Z:p" 1.666502707875120e-16
"time" 3.000000000000000e-09
"Vn_D1:v" 0.000000000000000e+00
"Vn_D1:i" 7.516798831830820e-14
"Vn_D1:pwr" 0.000000000000000e+00
"Vn_GND:v" 0.000000000000000e+00
"Vn_GND:i" 2.548661232611018e-10
"Vn_GND:pwr" 0.000000000000000e+00
"Vn_SD:v" 0.000000000000000e+00
"Vn_SD:i" -5.105744525068091e-13
"Vn_SD:pwr" -0.000000000000000e+00
"Vn_VDD:v" 1.200000000000000e+00
"Vn_VDD:i" -2.544855732118243e-10
"Vn_VDD:pwr" -3.053826878541891e-10
"Vn_Z:v" 0.000000000000000e+00
"Vn_Z:i" -7.685016469012476e-17
"Vn_Z:pwr" -0.000000000000000e+00
"n_Z" 1.199999494855147e+00
"n_D1" 0.000000000000000e+00
"n_SD" 1.200000000000000e+00
"Vn_D1:n" -7.516798831830820e-14
"Vn_D1:p" 7.516798831830820e-14
"Vn_GND:n" -2.548661232611018e-10
"Vn_GND:p" 2.548661232611018e-10
"Vn_SD:n" 5.105744525068091e-13
"Vn_SD:p" -5.105744525068091e-13
"Vn_VDD:n" 2.544855732118243e-10
"Vn_VDD:p" -2.544855732118243e-10
"Vn_Z:n" 7.685016469012476e-17
"Vn_Z:p" -7.685016469012476e-17
"time" 3.010000000000000e-09
"Vn_D1:v" 0.000000000000000e+00
"Vn_D1:i" 7.516750382807547e-14
"Vn_D1:pwr" 0.000000000000000e+00
"Vn_GND:v" 0.000000000000000e+00
"Vn_GND:i" 2.548661294163447e-10
"Vn_GND:pwr" 0.000000000000000e+00
"Vn_SD:v" 0.000000000000000e+00
"Vn_SD:i" -5.105744244407136e-13
"Vn_SD:pwr" -0.000000000000000e+00
"Vn_VDD:v" 1.200000000000000e+00
"Vn_VDD:i" -2.544855931511452e-10
"Vn_VDD:pwr" -3.053827117813742e-10
"Vn_Z:v" 0.000000000000000e+00
"Vn_Z:i" -6.089072042224911e-17
"Vn_Z:pwr" -0.000000000000000e+00
"n_Z" 1.199999494855043e+00
"n_D1" 0.000000000000000e+00
"n_SD" 1.200000000000000e+00
"Vn_D1:n" -7.516750382807547e-14
"Vn_D1:p" 7.516750382807547e-14
"Vn_GND:n" -2.548661294163447e-10
"Vn_GND:p" 2.548661294163447e-10
"Vn_SD:n" 5.105744244407136e-13
"Vn_SD:p" -5.105744244407136e-13
"Vn_VDD:n" 2.544855931511452e-10
"Vn_VDD:p" -2.544855931511452e-10
"Vn_Z:n" 6.089072042224911e-17
"Vn_Z:p" -6.089072042224911e-17
"time" 3.030000000000000e-09
"Vn_D1:v" 0.000000000000000e+00
"Vn_D1:i" 7.516847754877264e-14
"Vn_D1:pwr" 0.000000000000000e+00
"Vn_GND:v" 0.000000000000000e+00
"Vn_GND:i" 2.548661354880012e-10
"Vn_GND:pwr" 0.000000000000000e+00
"Vn_SD:v" 0.000000000000000e+00
"Vn_SD:i" -5.105734212143162e-13
"Vn_SD:pwr" -0.000000000000000e+00
"Vn_VDD:v" 1.200000000000000e+00
"Vn_VDD:i" -2.544856216201169e-10
"Vn_VDD:pwr" -3.053827459441403e-10
"Vn_Z:v" 0.000000000000000e+00
"Vn_Z:i" -4.043563895743920e-17
"Vn_Z:pwr" -0.000000000000000e+00
"n_Z" 1.199999494854906e+00
"n_D1" 0.000000000000000e+00
"n_SD" 1.200000000000000e+00
"Vn_D1:n" -7.516847754877264e-14
"Vn_D1:p" 7.516847754877264e-14
"Vn_GND:n" -2.548661354880012e-10
"Vn_GND:p" 2.548661354880012e-10
"Vn_SD:n" 5.105734212143162e-13
"Vn_SD:p" -5.105734212143162e-13
"Vn_VDD:n" 2.544856216201169e-10
"Vn_VDD:p" -2.544856216201169e-10
"Vn_Z:n" 4.043563895743920e-17
"Vn_Z:p" -4.043563895743920e-17
"time" 3.070000000000001e-09
"Vn_D1:v" 0.000000000000000e+00
"Vn_D1:i" 7.517006037004523e-14
"Vn_D1:pwr" 0.000000000000000e+00
"Vn_GND:v" 0.000000000000000e+00
"Vn_GND:i" 2.548661415110093e-10
"Vn_GND:pwr" 0.000000000000000e+00
"Vn_SD:v" 0.000000000000000e+00
"Vn_SD:i" -5.105716233223920e-13
"Vn_SD:pwr" -0.000000000000000e+00
"Vn_VDD:v" 1.200000000000000e+00
"Vn_VDD:i" -2.544856594817701e-10
"Vn_VDD:pwr" -3.053827913781242e-10
"Vn_Z:v" 0.000000000000000e+00
"Vn_Z:i" -1.387363791306742e-17
"Vn_Z:pwr" -0.000000000000000e+00
"n_Z" 1.199999494854722e+00
"n_D1" 0.000000000000000e+00
"n_SD" 1.200000000000000e+00
"Vn_D1:n" -7.517006037004523e-14
"Vn_D1:p" 7.517006037004523e-14
"Vn_GND:n" -2.548661415110093e-10
"Vn_GND:p" 2.548661415110093e-10
"Vn_SD:n" 5.105716233223920e-13
"Vn_SD:p" -5.105716233223920e-13
"Vn_VDD:n" 2.544856594817701e-10
"Vn_VDD:p" -2.544856594817701e-10
"Vn_Z:n" 1.387363791306742e-17
"Vn_Z:p" -1.387363791306742e-17
"time" 3.150000000000003e-09
"Vn_D1:v" 0.000000000000000e+00
"Vn_D1:i" 7.517153280233421e-14
"Vn_D1:pwr" 0.000000000000000e+00
"Vn_GND:v" 0.000000000000000e+00
"Vn_GND:i" 2.548661434508201e-10
"Vn_GND:pwr" 0.000000000000000e+00
"Vn_SD:v" 0.000000000000000e+00
"Vn_SD:i" -5.105701335259912e-13
"Vn_SD:pwr" -0.000000000000000e+00
"Vn_VDD:v" 1.200000000000000e+00
"Vn_VDD:i" -2.544856757607900e-10
"Vn_VDD:pwr" -3.053828109129481e-10
"Vn_Z:v" 0.000000000000000e+00
"Vn_Z:i" 2.155429736046899e-18
"Vn_Z:pwr" 0.000000000000000e+00
"n_Z" 1.199999494854643e+00
"n_D1" 0.000000000000000e+00
"n_SD" 1.200000000000000e+00
"Vn_D1:n" -7.517153280233421e-14
"Vn_D1:p" 7.517153280233421e-14
"Vn_GND:n" -2.548661434508201e-10
"Vn_GND:p" 2.548661434508201e-10
"Vn_SD:n" 5.105701335259912e-13
"Vn_SD:p" -5.105701335259912e-13
"Vn_VDD:n" 2.544856757607900e-10
"Vn_VDD:p" -2.544856757607900e-10
"Vn_Z:n" -2.155429736046899e-18
"Vn_Z:p" 2.155429736046899e-18
"time" 3.310000000000005e-09
"Vn_D1:v" 0.000000000000000e+00
"Vn_D1:i" 7.517115471517891e-14
"Vn_D1:pwr" 0.000000000000000e+00
"Vn_GND:v" 0.000000000000000e+00
"Vn_GND:i" 2.548661332249589e-10
"Vn_GND:pwr" 0.000000000000000e+00
"Vn_SD:v" 0.000000000000000e+00
"Vn_SD:i" -5.105702835528072e-13
"Vn_SD:pwr" -0.000000000000000e+00
"Vn_VDD:v" 1.200000000000000e+00
"Vn_VDD:i" -2.544856661284333e-10
"Vn_VDD:pwr" -3.053827993541200e-10
"Vn_Z:v" 0.000000000000000e+00
"Vn_Z:i" 1.346191283971316e-18
"Vn_Z:pwr" 0.000000000000000e+00
"n_Z" 1.199999494854691e+00
"n_D1" 0.000000000000000e+00
"n_SD" 1.200000000000000e+00
"Vn_D1:n" -7.517115471517891e-14
"Vn_D1:p" 7.517115471517891e-14
"Vn_GND:n" -2.548661332249589e-10
"Vn_GND:p" 2.548661332249589e-10
"Vn_SD:n" 5.105702835528072e-13
"Vn_SD:p" -5.105702835528072e-13
"Vn_VDD:n" 2.544856661284333e-10
"Vn_VDD:p" -2.544856661284333e-10
"Vn_Z:n" -1.346191283971316e-18
"Vn_Z:p" 1.346191283971316e-18
"time" 3.630000000000011e-09
"Vn_D1:v" 0.000000000000000e+00
"Vn_D1:i" 7.517148796268434e-14
"Vn_D1:pwr" 0.000000000000000e+00
"Vn_GND:v" 0.000000000000000e+00
"Vn_GND:i" 2.548661151069449e-10
"Vn_GND:pwr" 0.000000000000000e+00
"Vn_SD:v" 0.000000000000000e+00
"Vn_SD:i" -5.105702305389063e-13
"Vn_SD:pwr" -0.000000000000000e+00
"Vn_VDD:v" 1.200000000000000e+00
"Vn_VDD:i" -2.544856512611296e-10
"Vn_VDD:pwr" -3.053827815133555e-10
"Vn_Z:v" 0.000000000000000e+00
"Vn_Z:i" 9.824256844431100e-19
"Vn_Z:pwr" 0.000000000000000e+00
"n_Z" 1.199999494854754e+00
"n_D1" 0.000000000000000e+00
"n_SD" 1.200000000000000e+00
"Vn_D1:n" -7.517148796268434e-14
"Vn_D1:p" 7.517148796268434e-14
"Vn_GND:n" -2.548661151069449e-10
"Vn_GND:p" 2.548661151069449e-10
"Vn_SD:n" 5.105702305389063e-13
"Vn_SD:p" -5.105702305389063e-13
"Vn_VDD:n" 2.544856512611296e-10
"Vn_VDD:p" -2.544856512611296e-10
"Vn_Z:n" -9.824256844431100e-19
"Vn_Z:p" 9.824256844431100e-19
"time" 4.270000000000022e-09
"Vn_D1:v" 0.000000000000000e+00
"Vn_D1:i" 7.517111255703625e-14
"Vn_D1:pwr" 0.000000000000000e+00
"Vn_GND:v" 0.000000000000000e+00
"Vn_GND:i" 2.548660769829156e-10
"Vn_GND:pwr" 0.000000000000000e+00
"Vn_SD:v" 0.000000000000000e+00
"Vn_SD:i" -5.105703306099262e-13
"Vn_SD:pwr" -0.000000000000000e+00
"Vn_VDD:v" 1.200000000000000e+00
"Vn_VDD:i" -2.544856122082179e-10
"Vn_VDD:pwr" -3.053827346498615e-10
"Vn_Z:v" 0.000000000000000e+00
"Vn_Z:i" 2.154763579822914e-18
"Vn_Z:pwr" 0.000000000000000e+00
"n_Z" 1.199999494854924e+00
"n_D1" 0.000000000000000e+00
"n_SD" 1.200000000000000e+00
"Vn_D1:n" -7.517111255703625e-14
"Vn_D1:p" 7.517111255703625e-14
"Vn_GND:n" -2.548660769829156e-10
"Vn_GND:p" 2.548660769829156e-10
"Vn_SD:n" 5.105703306099262e-13
"Vn_SD:p" -5.105703306099262e-13
"Vn_VDD:n" 2.544856122082179e-10
"Vn_VDD:p" -2.544856122082179e-10
"Vn_Z:n" -2.154763579822914e-18
"Vn_Z:p" 2.154763579822914e-18
"time" 5.050000000000022e-09
"Vn_D1:v" 0.000000000000000e+00
"Vn_D1:i" 7.517137512215395e-14
"Vn_D1:pwr" 0.000000000000000e+00
"Vn_GND:v" 0.000000000000000e+00
"Vn_GND:i" 2.548660319707081e-10
"Vn_GND:pwr" 0.000000000000000e+00
"Vn_SD:v" 0.000000000000000e+00
"Vn_SD:i" -5.105703384456518e-13
"Vn_SD:pwr" -0.000000000000000e+00
"Vn_VDD:v" 1.200000000000000e+00
"Vn_VDD:i" -2.544855653052485e-10
"Vn_VDD:pwr" -3.053826783662982e-10
"Vn_Z:v" 0.000000000000000e+00
"Vn_Z:i" 7.969577114300133e-19
"Vn_Z:pwr" 0.000000000000000e+00
"n_Z" 1.199999494855119e+00
"n_D1" 0.000000000000000e+00
"n_SD" 1.200000000000000e+00
"Vn_D1:n" -7.517137512215395e-14
"Vn_D1:p" 7.517137512215395e-14
"Vn_GND:n" -2.548660319707081e-10
"Vn_GND:p" 2.548660319707081e-10
"Vn_SD:n" 5.105703384456518e-13
"Vn_SD:p" -5.105703384456518e-13
"Vn_VDD:n" 2.544855653052485e-10
"Vn_VDD:p" -2.544855653052485e-10
"Vn_Z:n" -7.969577114300133e-19
"Vn_Z:p" 7.969577114300133e-19
"time" 5.830000000000022e-09
"Vn_D1:v" 0.000000000000000e+00
"Vn_D1:i" 7.517122973659141e-14
"Vn_D1:pwr" 0.000000000000000e+00
"Vn_GND:v" 0.000000000000000e+00
"Vn_GND:i" 2.548659871934117e-10
"Vn_GND:pwr" 0.000000000000000e+00
"Vn_SD:v" 0.000000000000000e+00
"Vn_SD:i" -5.105702314836275e-13
"Vn_SD:pwr" -0.000000000000000e+00
"Vn_VDD:v" 1.200000000000000e+00
"Vn_VDD:i" -2.544855203623183e-10
"Vn_VDD:pwr" -3.053826244347819e-10
"Vn_Z:v" 0.000000000000000e+00
"Vn_Z:i" 2.292873707979784e-18
"Vn_Z:pwr" 0.000000000000000e+00
"n_Z" 1.199999494855323e+00
"n_D1" 0.000000000000000e+00
"n_SD" 1.200000000000000e+00
"Vn_D1:n" -7.517122973659141e-14
"Vn_D1:p" 7.517122973659141e-14
"Vn_GND:n" -2.548659871934117e-10
"Vn_GND:p" 2.548659871934117e-10
"Vn_SD:n" 5.105702314836275e-13
"Vn_SD:p" -5.105702314836275e-13
"Vn_VDD:n" 2.544855203623183e-10
"Vn_VDD:p" -2.544855203623183e-10
"Vn_Z:n" -2.292873707979784e-18
"Vn_Z:p" 2.292873707979784e-18
"time" 6.010000000000000e-09
"Vn_D1:v" 0.000000000000000e+00
"Vn_D1:i" 7.517120091728332e-14
"Vn_D1:pwr" 0.000000000000000e+00
"Vn_GND:v" 0.000000000000000e+00
"Vn_GND:i" 2.548659756747303e-10
"Vn_GND:pwr" 0.000000000000000e+00
"Vn_SD:v" 0.000000000000000e+00
"Vn_SD:i" -5.105703884660703e-13
"Vn_SD:pwr" -0.000000000000000e+00
"Vn_VDD:v" 1.200000000000000e+00
"Vn_VDD:i" -2.544855038490372e-10
"Vn_VDD:pwr" -3.053826046188446e-10
"Vn_Z:v" 0.000000000000000e+00
"Vn_Z:i" 4.588010652421215e-19
"Vn_Z:pwr" 0.000000000000000e+00
"n_Z" 1.199999494855365e+00
"n_D1" 0.000000000000000e+00
"n_SD" 1.200000000000000e+00
"Vn_D1:n" -7.517120091728332e-14
"Vn_D1:p" 7.517120091728332e-14
"Vn_GND:n" -2.548659756747303e-10
"Vn_GND:p" 2.548659756747303e-10
"Vn_SD:n" 5.105703884660703e-13
"Vn_SD:p" -5.105703884660703e-13
"Vn_VDD:n" 2.544855038490372e-10
"Vn_VDD:p" -2.544855038490372e-10
"Vn_Z:n" -4.588010652421215e-19
"Vn_Z:p" 4.588010652421215e-19
"time" 6.019999795400000e-09
"Vn_D1:v" 0.000000000000000e+00
"Vn_D1:i" 7.517137027593132e-14
"Vn_D1:pwr" 0.000000000000000e+00
"Vn_GND:v" 0.000000000000000e+00
"Vn_GND:i" 2.548659757465026e-10
"Vn_GND:pwr" 0.000000000000000e+00
"Vn_SD:v" 0.000000000000000e+00
"Vn_SD:i" -5.105705751373899e-13
"Vn_SD:pwr" -0.000000000000000e+00
"Vn_VDD:v" 1.200000000000000e+00
"Vn_VDD:i" -2.544855087486210e-10
"Vn_VDD:pwr" -3.053826104983452e-10
"Vn_Z:v" 0.000000000000000e+00
"Vn_Z:i" 7.650026082883365e-19
"Vn_Z:pwr" 0.000000000000000e+00
"n_Z" 1.199999494855366e+00
"n_D1" 0.000000000000000e+00
"n_SD" 1.200000000000000e+00
"Vn_D1:n" -7.517137027593132e-14
"Vn_D1:p" 7.517137027593132e-14
"Vn_GND:n" -2.548659757465026e-10
"Vn_GND:p" 2.548659757465026e-10
"Vn_SD:n" 5.105705751373899e-13
"Vn_SD:p" -5.105705751373899e-13
"Vn_VDD:n" 2.544855087486210e-10
"Vn_VDD:p" -2.544855087486210e-10
"Vn_Z:n" -7.650026082883365e-19
"Vn_Z:p" 7.650026082883365e-19
"time" 6.020000000000000e-09
"Vn_D1:v" 0.000000000000000e+00
"Vn_D1:i" -1.348174194060779e-06
"Vn_D1:pwr" -0.000000000000000e+00
"Vn_GND:v" 0.000000000000000e+00
"Vn_GND:i" 2.421593911003081e-07
"Vn_GND:pwr" 0.000000000000000e+00
"Vn_SD:v" 0.000000000000000e+00
"Vn_SD:i" 5.440672721173164e-11
"Vn_SD:pwr" 0.000000000000000e+00
"Vn_VDD:v" 1.200000000000000e+00
"Vn_VDD:i" 1.105960116883935e-06
"Vn_VDD:pwr" 1.327152140260721e-06
"Vn_Z:v" 0.000000000000000e+00
"Vn_Z:i" 2.245739387602623e-13
"Vn_Z:pwr" 0.000000000000000e+00
"n_Z" 1.199999494855374e+00
"n_D1" 2.456580613633633e-07
"n_SD" 1.200000000000000e+00
"Vn_D1:n" 1.348174194060779e-06
"Vn_D1:p" -1.348174194060779e-06
"Vn_GND:n" -2.421593911003081e-07
"Vn_GND:p" 2.421593911003081e-07
"Vn_SD:n" -5.440672721173164e-11
"Vn_SD:p" 5.440672721173164e-11
"Vn_VDD:n" -1.105960116883935e-06
"Vn_VDD:p" 1.105960116883935e-06
"Vn_Z:n" -2.245739387602623e-13
"Vn_Z:p" 2.245739387602623e-13
"time" 6.020000409200001e-09
"Vn_D1:v" 0.000000000000000e+00
"Vn_D1:i" -1.349430106637834e-06
"Vn_D1:pwr" -0.000000000000000e+00
"Vn_GND:v" 0.000000000000000e+00
"Vn_GND:i" 2.423764585344294e-07
"Vn_GND:pwr" 0.000000000000000e+00
"Vn_SD:v" 0.000000000000000e+00
"Vn_SD:i" 1.639621369818428e-10
"Vn_SD:pwr" 0.000000000000000e+00
"Vn_VDD:v" 1.200000000000000e+00
"Vn_VDD:i" 1.106888069213690e-06
"Vn_VDD:pwr" 1.328265683056428e-06
"Vn_Z:v" 0.000000000000000e+00
"Vn_Z:i" 1.561308828177245e-12
"Vn_Z:pwr" 0.000000000000000e+00
"n_Z" 1.199999494855483e+00
"n_D1" 7.369741840900898e-07
"n_SD" 1.200000000000000e+00
"Vn_D1:n" 1.349430106637834e-06
"Vn_D1:p" -1.349430106637834e-06
"Vn_GND:n" -2.423764585344294e-07
"Vn_GND:p" 2.423764585344294e-07
"Vn_SD:n" -1.639621369818428e-10
"Vn_SD:p" 1.639621369818428e-10
"Vn_VDD:n" -1.106888069213690e-06
"Vn_VDD:p" 1.106888069213690e-06
"Vn_Z:n" -1.561308828177245e-12
"Vn_Z:p" 1.561308828177245e-12
"time" 6.020001227600002e-09
"Vn_D1:v" 0.000000000000000e+00
"Vn_D1:i" -1.351934669091352e-06
"Vn_D1:pwr" -0.000000000000000e+00
"Vn_GND:v" 0.000000000000000e+00
"Vn_GND:i" 2.428094162916380e-07
"Vn_GND:pwr" 0.000000000000000e+00
"Vn_SD:v" 0.000000000000000e+00
"Vn_SD:i" 3.825231317804042e-10
"Vn_SD:pwr" 0.000000000000000e+00
"Vn_VDD:v" 1.200000000000000e+00
"Vn_VDD:i" 1.108736684912120e-06
"Vn_VDD:pwr" 1.330484021894544e-06
"Vn_Z:v" 0.000000000000000e+00
"Vn_Z:i" 5.988878662572915e-12
"Vn_Z:pwr" 0.000000000000000e+00
"n_Z" 1.199999494856006e+00
"n_D1" 1.719606429543543e-06
"n_SD" 1.200000000000000e+00
"Vn_D1:n" 1.351934669091352e-06
"Vn_D1:p" -1.351934669091352e-06
"Vn_GND:n" -2.428094162916380e-07
"Vn_GND:p" 2.428094162916380e-07
"Vn_SD:n" -3.825231317804042e-10
"Vn_SD:p" 3.825231317804042e-10
"Vn_VDD:n" -1.108736684912120e-06
"Vn_VDD:p" 1.108736684912120e-06
"Vn_Z:n" -5.988878662572915e-12
"Vn_Z:p" 5.988878662572915e-12
"time" 6.020002864400004e-09
"Vn_D1:v" 0.000000000000000e+00
"Vn_D1:i" -1.356900224602376e-06
"Vn_D1:pwr" -0.000000000000000e+00
"Vn_GND:v" 0.000000000000000e+00
"Vn_GND:i" 2.436683742842180e-07
"Vn_GND:pwr" 0.000000000000000e+00
"Vn_SD:v" 0.000000000000000e+00
"Vn_SD:i" 8.163227372081026e-10
"Vn_SD:pwr" 0.000000000000000e+00
"Vn_VDD:v" 1.200000000000000e+00
"Vn_VDD:i" 1.112390352699523e-06
"Vn_VDD:pwr" 1.334868423239427e-06
"Vn_Z:v" 0.000000000000000e+00
"Vn_Z:i" 2.512011064887397e-11
"Vn_Z:pwr" 0.000000000000000e+00
"n_Z" 1.199999494860321e+00
"n_D1" 3.684870920450449e-06
"n_SD" 1.200000000000000e+00
"Vn_D1:n" 1.356900224602376e-06
"Vn_D1:p" -1.356900224602376e-06
"Vn_GND:n" -2.436683742842180e-07
"Vn_GND:p" 2.436683742842180e-07
"Vn_SD:n" -8.163227372081026e-10
"Vn_SD:p" 8.163227372081026e-10
"Vn_VDD:n" -1.112390352699523e-06
"Vn_VDD:p" 1.112390352699523e-06
"Vn_Z:n" -2.512011064887397e-11
"Vn_Z:p" 2.512011064887397e-11
"time" 6.020006138000008e-09
"Vn_D1:v" 0.000000000000000e+00
"Vn_D1:i" -1.366660577537128e-06
"Vn_D1:pwr" -0.000000000000000e+00
"Vn_GND:v" 0.000000000000000e+00
"Vn_GND:i" 2.453586422192126e-07
"Vn_GND:pwr" 0.000000000000000e+00
"Vn_SD:v" 0.000000000000000e+00
"Vn_SD:i" 1.670774172589428e-09
"Vn_SD:pwr" 0.000000000000000e+00
"Vn_VDD:v" 1.200000000000000e+00
"Vn_VDD:i" 1.119529001371338e-06
"Vn_VDD:pwr" 1.343434801645606e-06
"Vn_Z:v" 0.000000000000000e+00
"Vn_Z:i" 1.021045802078835e-10
"Vn_Z:pwr" 0.000000000000000e+00
"n_Z" 1.199999494895617e+00
"n_D1" 7.615399902264261e-06
"n_SD" 1.200000000000000e+00
"Vn_D1:n" 1.366660577537128e-06
"Vn_D1:p" -1.366660577537128e-06
"Vn_GND:n" -2.453586422192126e-07
"Vn_GND:p" 2.453586422192126e-07
"Vn_SD:n" -1.670774172589428e-09
"Vn_SD:p" 1.670774172589428e-09
"Vn_VDD:n" -1.119529001371338e-06
"Vn_VDD:p" 1.119529001371338e-06
"Vn_Z:n" -1.021045802078835e-10
"Vn_Z:p" 1.021045802078835e-10
"time" 6.020012685200016e-09
"Vn_D1:v" 0.000000000000000e+00
"Vn_D1:i" -1.385521107586441e-06
"Vn_D1:pwr" -0.000000000000000e+00
"Vn_GND:v" 0.000000000000000e+00
"Vn_GND:i" 2.486309160466504e-07
"Vn_GND:pwr" 0.000000000000000e+00
"Vn_SD:v" 0.000000000000000e+00
"Vn_SD:i" 3.328046661313121e-09
"Vn_SD:pwr" 0.000000000000000e+00
"Vn_VDD:v" 1.200000000000000e+00
"Vn_VDD:i" 1.133168502707194e-06
"Vn_VDD:pwr" 1.359802203248632e-06
"Vn_Z:v" 0.000000000000000e+00
"Vn_Z:i" 3.935877298858880e-10
"Vn_Z:pwr" 0.000000000000000e+00
"n_Z" 1.199999495170650e+00
"n_D1" 1.547645786589189e-05
"n_SD" 1.200000000000000e+00
"Vn_D1:n" 1.385521107586441e-06
"Vn_D1:p" -1.385521107586441e-06
"Vn_GND:n" -2.486309160466504e-07
"Vn_GND:p" 2.486309160466504e-07
"Vn_SD:n" -3.328046661313121e-09
"Vn_SD:p" 3.328046661313121e-09
"Vn_VDD:n" -1.133168502707194e-06
"Vn_VDD:p" 1.133168502707194e-06
"Vn_Z:n" -3.935877298858880e-10
"Vn_Z:p" 3.935877298858880e-10
"time" 6.020025779600032e-09
"Vn_D1:v" 0.000000000000000e+00
"Vn_D1:i" -1.413780307324439e-06
"Vn_D1:pwr" -0.000000000000000e+00
"Vn_GND:v" 0.000000000000000e+00
"Vn_GND:i" 2.547735886140971e-07
"Vn_GND:pwr" 0.000000000000000e+00
"Vn_SD:v" 0.000000000000000e+00
"Vn_SD:i" 6.445262618663534e-09
"Vn_SD:pwr" 0.000000000000000e+00
"Vn_VDD:v" 1.200000000000000e+00
"Vn_VDD:i" 1.151148611822609e-06
"Vn_VDD:pwr" 1.381378334187131e-06
"Vn_Z:v" 0.000000000000000e+00
"Vn_Z:i" 1.412788677008305e-09
"Vn_Z:pwr" 0.000000000000000e+00
"n_Z" 1.199999497175177e+00
"n_D1" 3.119857379314713e-05
"n_SD" 1.200000000000000e+00
"Vn_D1:n" 1.413780307324439e-06
"Vn_D1:p" -1.413780307324439e-06
"Vn_GND:n" -2.547735886140971e-07
"Vn_GND:p" 2.547735886140971e-07
"Vn_SD:n" -6.445262618663534e-09
"Vn_SD:p" 6.445262618663534e-09
"Vn_VDD:n" -1.151148611822609e-06
"Vn_VDD:p" 1.151148611822609e-06
"Vn_Z:n" -1.412788677008305e-09
"Vn_Z:p" 1.412788677008305e-09
"time" 6.020051968400065e-09
"Vn_D1:v" 0.000000000000000e+00
"Vn_D1:i" -1.463281240589137e-06
"Vn_D1:pwr" -0.000000000000000e+00
"Vn_GND:v" 0.000000000000000e+00
"Vn_GND:i" 2.656228480654396e-07
"Vn_GND:pwr" 0.000000000000000e+00
"Vn_SD:v" 0.000000000000000e+00
"Vn_SD:i" 1.196840103501865e-08
"Vn_SD:pwr" 0.000000000000000e+00
"Vn_VDD:v" 1.200000000000000e+00
"Vn_VDD:i" 1.181129384263260e-06
"Vn_VDD:pwr" 1.417355261115912e-06
"Vn_Z:v" 0.000000000000000e+00
"Vn_Z:i" 4.560552959243973e-09
"Vn_Z:pwr" 0.000000000000000e+00
"n_Z" 1.199999510432351e+00
"n_D1" 6.264280564765764e-05
"n_SD" 1.200000000000000e+00
"Vn_D1:n" 1.463281240589137e-06
"Vn_D1:p" -1.463281240589137e-06
"Vn_GND:n" -2.656228480654396e-07
"Vn_GND:p" 2.656228480654396e-07
"Vn_SD:n" -1.196840103501865e-08
"Vn_SD:p" 1.196840103501865e-08
"Vn_VDD:n" -1.181129384263260e-06
"Vn_VDD:p" 1.181129384263260e-06
"Vn_Z:n" -4.560552959243973e-09
"Vn_Z:p" 4.560552959243973e-09
"time" 6.020104346000130e-09
"Vn_D1:v" 0.000000000000000e+00
"Vn_D1:i" -1.554580521116658e-06
"Vn_D1:pwr" -0.000000000000000e+00
"Vn_GND:v" 0.000000000000000e+00
"Vn_GND:i" 2.825307905149585e-07
"Vn_GND:pwr" 0.000000000000000e+00
"Vn_SD:v" 0.000000000000000e+00
"Vn_SD:i" 2.069392706102460e-08
"Vn_SD:pwr" 0.000000000000000e+00