HEADER
"PSFversion" "1.00"
"simulator" "spectre"
"version" "10.1.1.164.isr11"
"date" "3:01:57 PM, Fri Oct 17, 2014"
"design" "* Spectre Timing Acquisition"
"analysis type" "tran"
"analysis name" "transient1-021_transient1"
"analysis description" "Transient Analysis `transient1-021_transient1': time = (0 s -> 39 ns)"
"xVecSorted" "ascending"
"tolerance.relative" 0.00100000
"start" 0.00000
"outputstart" 0.00000
"stop" 3.90000e-08
"step" 3.90000e-11
"maxstep" 7.80000e-10
"ic" "all"
"useprevic" "no"
"skipdc" "no"
"reltol" 0.00100000
"abstol(V)" 1.00000e-06
"abstol(I)" 1.00000e-12
"temp" 25.0000
"tnom" 27.0000
"tempeffects" "all"
"errpreset" "moderate"
"method" "traponly"
"lteratio" 3.50000
"relref" "sigglobal"
"cmin" 0.00000
"gmin" 1.00000e-12
TYPE
"sweep" FLOAT DOUBLE PROP(
"key" "sweep"
)
"Tau" FLOAT DOUBLE PROP(
"units" "N*m"
"key" "node"
"tolerance" 1.00000e-06
)
"Alpha" FLOAT DOUBLE PROP(
"units" "rads/s^2"
"key" "node"
"tolerance" 1.00000e-06
)
"Omega" FLOAT DOUBLE PROP(
"units" "rads/s"
"key" "node"
"tolerance" 1.00000e-06
)
"Theta" FLOAT DOUBLE PROP(
"units" "rads"
"key" "node"
"tolerance" 1.00000e-06
)
"F" FLOAT DOUBLE PROP(
"units" "N"
"key" "node"
"tolerance" 1.00000e-06
)
"Imp" FLOAT DOUBLE PROP(
"units" "m/s^3"
"key" "node"
"tolerance" 1.00000e-06
)
"Acc" FLOAT DOUBLE PROP(
"units" "m/s^2"
"key" "node"
"tolerance" 1.00000e-06
)
"Vel" FLOAT DOUBLE PROP(
"units" "m/s"
"key" "node"
"tolerance" 1.00000e-06
)
"Pos" FLOAT DOUBLE PROP(
"units" "m"
"key" "node"
"tolerance" 1.00000e-06
)
"Phi" FLOAT DOUBLE PROP(
"units" "Wb"
"key" "node"
"tolerance" 1.00000e-09
)
"Q" FLOAT DOUBLE PROP(
"units" "coul"
"key" "node"
"tolerance" 1.00000e-14
)
"V" FLOAT DOUBLE PROP(
"units" "V"
"key" "node"
"tolerance" 1.00000e-06
)
"I" FLOAT DOUBLE PROP(
"units" "A"
"key" "branch"
"tolerance" 1.00000e-12
)
"MMF" FLOAT DOUBLE PROP(
"units" "A*turn"
"key" "node"
"tolerance" 1.00000e-12
)
"Wb" FLOAT DOUBLE PROP(
"units" "Wb"
"key" "node"
"tolerance" 1.00000e-09
)
"Temp" FLOAT DOUBLE PROP(
"units" "C"
"key" "node"
"tolerance" 0.000100000
)
"Pwr" FLOAT DOUBLE PROP(
"units" "W"
"key" "node"
"tolerance" 1.00000e-09
)
"U" FLOAT DOUBLE PROP(
"units" ""
"key" "node"
"tolerance" 1.00000e-06
)
"V/Sec" FLOAT DOUBLE PROP(
"units" "V/s"
"key" "node"
"tolerance" 0.000100000
)
"I/Sec" FLOAT DOUBLE PROP(
"units" "A/s"
"key" "node"
"tolerance" 1.00000e-06
)
"1/Sec" FLOAT DOUBLE PROP(
"units" "1/s"
"key" "node"
"tolerance" 0.000100000
)
"HOD" FLOAT DOUBLE PROP(
"units" ""
"key" "node"
"tolerance" 0.0100000
)
"A" FLOAT DOUBLE PROP(
"key" "inst"
)
"W" FLOAT DOUBLE PROP(
"key" "inst"
)
SWEEP
"time" "sweep" PROP(
"sweep_direction" 0
"units" "s"
"plot" 0
"grid" 1
)
TRACE
"Vn_D1:v" "V" PROP(
"units" "V"
)
"Vn_D1:i" "A" PROP(
"units" "A"
)
"Vn_D1:pwr" "W" PROP(
"units" "W"
)
"Vn_GND:v" "V" PROP(
"units" "V"
)
"Vn_GND:i" "A" PROP(
"units" "A"
)
"Vn_GND:pwr" "W" PROP(
"units" "W"
)
"Vn_SD:v" "V" PROP(
"units" "V"
)
"Vn_SD:i" "A" PROP(
"units" "A"
)
"Vn_SD:pwr" "W" PROP(
"units" "W"
)
"Vn_VDD:v" "V" PROP(
"units" "V"
)
"Vn_VDD:i" "A" PROP(
"units" "A"
)
"Vn_VDD:pwr" "W" PROP(
"units" "W"
)
"Vn_Z:v" "V" PROP(
"units" "V"
)
"Vn_Z:i" "A" PROP(
"units" "A"
)
"Vn_Z:pwr" "W" PROP(
"units" "W"
)
"n_Z" "V"
"n_D1" "V"
"n_SD" "V"
"Vn_D1:n" "I"
"Vn_D1:p" "I"
"Vn_GND:n" "I"
"Vn_GND:p" "I"
"Vn_SD:n" "I"
"Vn_SD:p" "I"
"Vn_VDD:n" "I"
"Vn_VDD:p" "I"
"Vn_Z:n" "I"
"Vn_Z:p" "I"
VALUE
"time" 0.000000000000000e+00
"Vn_D1:v" 0.000000000000000e+00
"Vn_D1:i" 7.517119452868271e-14
"Vn_D1:pwr" 0.000000000000000e+00
"Vn_GND:v" 0.000000000000000e+00
"Vn_GND:i" 2.548493107915346e-10
"Vn_GND:pwr" 0.000000000000000e+00
"Vn_SD:v" 0.000000000000000e+00
"Vn_SD:i" -5.105704018311278e-13
"Vn_SD:pwr" -0.000000000000000e+00
"Vn_VDD:v" 1.200000000000000e+00
"Vn_VDD:i" -2.544688430804961e-10
"Vn_VDD:pwr" -3.053626116965954e-10
"Vn_Z:v" 0.000000000000000e+00
"Vn_Z:i" 0.000000000000000e+00
"Vn_Z:pwr" 0.000000000000000e+00
"n_Z" 1.199999494927445e+00
"n_D1" 0.000000000000000e+00
"n_SD" 1.200000000000000e+00
"Vn_D1:n" -7.517119452868271e-14
"Vn_D1:p" 7.517119452868271e-14
"Vn_GND:n" -2.548493107915346e-10
"Vn_GND:p" 2.548493107915346e-10
"Vn_SD:n" 5.105704018311278e-13
"Vn_SD:p" -5.105704018311278e-13
"Vn_VDD:n" 2.544688430804961e-10
"Vn_VDD:p" -2.544688430804961e-10
"Vn_Z:n" 0.000000000000000e+00
"Vn_Z:p" 0.000000000000000e+00
"time" 3.900000000000000e-11
"Vn_D1:v" 0.000000000000000e+00
"Vn_D1:i" 7.486572205960336e-14
"Vn_D1:pwr" 0.000000000000000e+00
"Vn_GND:v" 0.000000000000000e+00
"Vn_GND:i" 2.548643621448809e-10
"Vn_GND:pwr" 0.000000000000000e+00
"Vn_SD:v" 0.000000000000000e+00
"Vn_SD:i" -5.109539657168957e-13
"Vn_SD:pwr" -0.000000000000000e+00
"Vn_VDD:v" 1.200000000000000e+00
"Vn_VDD:i" -2.544782074622698e-10
"Vn_VDD:pwr" -3.053738489547237e-10
"Vn_Z:v" 0.000000000000000e+00
"Vn_Z:i" -4.997934614665954e-15
"Vn_Z:pwr" -0.000000000000000e+00
"n_Z" 1.199999494890667e+00
"n_D1" 0.000000000000000e+00
"n_SD" 1.200000000000000e+00
"Vn_D1:n" -7.486572205960336e-14
"Vn_D1:p" 7.486572205960336e-14
"Vn_GND:n" -2.548643621448809e-10
"Vn_GND:p" 2.548643621448809e-10
"Vn_SD:n" 5.109539657168957e-13
"Vn_SD:p" -5.109539657168957e-13
"Vn_VDD:n" 2.544782074622698e-10
"Vn_VDD:p" -2.544782074622698e-10
"Vn_Z:n" 4.997934614665954e-15
"Vn_Z:p" -4.997934614665954e-15
"time" 1.170000000000000e-10
"Vn_D1:v" 0.000000000000000e+00
"Vn_D1:i" 7.504720785968958e-14
"Vn_D1:pwr" 0.000000000000000e+00
"Vn_GND:v" 0.000000000000000e+00
"Vn_GND:i" 2.548656890127252e-10
"Vn_GND:pwr" 0.000000000000000e+00
"Vn_SD:v" 0.000000000000000e+00
"Vn_SD:i" -5.107122032843715e-13
"Vn_SD:pwr" -0.000000000000000e+00
"Vn_VDD:v" 1.200000000000000e+00
"Vn_VDD:i" -2.544832957146475e-10
"Vn_VDD:pwr" -3.053799548575770e-10
"Vn_Z:v" 0.000000000000000e+00
"Vn_Z:i" -1.659789554288948e-15
"Vn_Z:pwr" -0.000000000000000e+00
"n_Z" 1.199999494866240e+00
"n_D1" 0.000000000000000e+00
"n_SD" 1.200000000000000e+00
"Vn_D1:n" -7.504720785968958e-14
"Vn_D1:p" 7.504720785968958e-14
"Vn_GND:n" -2.548656890127252e-10
"Vn_GND:p" 2.548656890127252e-10
"Vn_SD:n" 5.107122032843715e-13
"Vn_SD:p" -5.107122032843715e-13
"Vn_VDD:n" 2.544832957146475e-10
"Vn_VDD:p" -2.544832957146475e-10
"Vn_Z:n" 1.659789554288948e-15
"Vn_Z:p" -1.659789554288948e-15
"time" 2.730000000000000e-10
"Vn_D1:v" 0.000000000000000e+00
"Vn_D1:i" 7.521043364533544e-14
"Vn_D1:pwr" 0.000000000000000e+00
"Vn_GND:v" 0.000000000000000e+00
"Vn_GND:i" 2.548665193691485e-10
"Vn_GND:pwr" 0.000000000000000e+00
"Vn_SD:v" 0.000000000000000e+00
"Vn_SD:i" -5.105252043933788e-13
"Vn_SD:pwr" -0.000000000000000e+00
"Vn_VDD:v" 1.200000000000000e+00
"Vn_VDD:i" -2.544866860898042e-10
"Vn_VDD:pwr" -3.053840233077651e-10
"Vn_Z:v" 0.000000000000000e+00
"Vn_Z:i" 5.466494535541627e-16
"Vn_Z:pwr" 0.000000000000000e+00
"n_Z" 1.199999494849858e+00
"n_D1" 0.000000000000000e+00
"n_SD" 1.200000000000000e+00
"Vn_D1:n" -7.521043364533544e-14
"Vn_D1:p" 7.521043364533544e-14
"Vn_GND:n" -2.548665193691485e-10
"Vn_GND:p" 2.548665193691485e-10
"Vn_SD:n" 5.105252043933788e-13
"Vn_SD:p" -5.105252043933788e-13
"Vn_VDD:n" 2.544866860898042e-10
"Vn_VDD:p" -2.544866860898042e-10
"Vn_Z:n" -5.466494535541627e-16
"Vn_Z:p" 5.466494535541627e-16
"time" 5.850000000000002e-10
"Vn_D1:v" 0.000000000000000e+00
"Vn_D1:i" 7.514883244283003e-14
"Vn_D1:pwr" 0.000000000000000e+00
"Vn_GND:v" 0.000000000000000e+00
"Vn_GND:i" 2.548661683984765e-10
"Vn_GND:pwr" 0.000000000000000e+00
"Vn_SD:v" 0.000000000000000e+00
"Vn_SD:i" -5.105963592354180e-13
"Vn_SD:pwr" -0.000000000000000e+00
"Vn_VDD:v" 1.200000000000000e+00
"Vn_VDD:i" -2.544853280697631e-10
"Vn_VDD:pwr" -3.053823936837158e-10
"Vn_Z:v" 0.000000000000000e+00
"Vn_Z:i" -3.240875806314671e-16
"Vn_Z:pwr" -0.000000000000000e+00
"n_Z" 1.199999494856409e+00
"n_D1" 0.000000000000000e+00
"n_SD" 1.200000000000000e+00
"Vn_D1:n" -7.514883244283003e-14
"Vn_D1:p" 7.514883244283003e-14
"Vn_GND:n" -2.548661683984765e-10
"Vn_GND:p" 2.548661683984765e-10
"Vn_SD:n" 5.105963592354180e-13
"Vn_SD:p" -5.105963592354180e-13
"Vn_VDD:n" 2.544853280697631e-10
"Vn_VDD:p" -2.544853280697631e-10
"Vn_Z:n" 3.240875806314671e-16
"Vn_Z:p" -3.240875806314671e-16
"time" 1.209000000000000e-09
"Vn_D1:v" 0.000000000000000e+00
"Vn_D1:i" 7.518836071823771e-14
"Vn_D1:pwr" 0.000000000000000e+00
"Vn_GND:v" 0.000000000000000e+00
"Vn_GND:i" 2.548663538906707e-10
"Vn_GND:pwr" 0.000000000000000e+00
"Vn_SD:v" 0.000000000000000e+00
"Vn_SD:i" -5.105503499863438e-13
"Vn_SD:pwr" -0.000000000000000e+00
"Vn_VDD:v" 1.200000000000000e+00
"Vn_VDD:i" -2.544861707888850e-10
"Vn_VDD:pwr" -3.053834049466620e-10
"Vn_Z:v" 0.000000000000000e+00
"Vn_Z:i" 2.541636479272699e-16
"Vn_Z:pwr" 0.000000000000000e+00
"n_Z" 1.199999494852293e+00
"n_D1" 0.000000000000000e+00
"n_SD" 1.200000000000000e+00
"Vn_D1:n" -7.518836071823771e-14
"Vn_D1:p" 7.518836071823771e-14
"Vn_GND:n" -2.548663538906707e-10
"Vn_GND:p" 2.548663538906707e-10
"Vn_SD:n" 5.105503499863438e-13
"Vn_SD:p" -5.105503499863438e-13
"Vn_VDD:n" 2.544861707888850e-10
"Vn_VDD:p" -2.544861707888850e-10
"Vn_Z:n" -2.541636479272699e-16
"Vn_Z:p" 2.541636479272699e-16
"time" 1.989000000000000e-09
"Vn_D1:v" 0.000000000000000e+00
"Vn_D1:i" 7.515776520246702e-14
"Vn_D1:pwr" 0.000000000000000e+00
"Vn_GND:v" 0.000000000000000e+00
"Vn_GND:i" 2.548661309122543e-10
"Vn_GND:pwr" 0.000000000000000e+00
"Vn_SD:v" 0.000000000000000e+00
"Vn_SD:i" -5.105861727406724e-13
"Vn_SD:pwr" -0.000000000000000e+00
"Vn_VDD:v" 1.200000000000000e+00
"Vn_VDD:i" -2.544854333652859e-10
"Vn_VDD:pwr" -3.053825200383430e-10
"Vn_Z:v" 0.000000000000000e+00
"Vn_Z:i" -2.056296956452435e-16
"Vn_Z:pwr" -0.000000000000000e+00
"n_Z" 1.199999494855865e+00
"n_D1" 0.000000000000000e+00
"n_SD" 1.200000000000000e+00
"Vn_D1:n" -7.515776520246702e-14
"Vn_D1:p" 7.515776520246702e-14
"Vn_GND:n" -2.548661309122543e-10
"Vn_GND:p" 2.548661309122543e-10
"Vn_SD:n" 5.105861727406724e-13
"Vn_SD:p" -5.105861727406724e-13
"Vn_VDD:n" 2.544854333652859e-10
"Vn_VDD:p" -2.544854333652859e-10
"Vn_Z:n" 2.056296956452435e-16
"Vn_Z:p" -2.056296956452435e-16
"time" 2.769000000000001e-09
"Vn_D1:v" 0.000000000000000e+00
"Vn_D1:i" 7.518192228386811e-14
"Vn_D1:pwr" 0.000000000000000e+00
"Vn_GND:v" 0.000000000000000e+00
"Vn_GND:i" 2.548662296895861e-10
"Vn_GND:pwr" 0.000000000000000e+00
"Vn_SD:v" 0.000000000000000e+00
"Vn_SD:i" -5.105577141952642e-13
"Vn_SD:pwr" -0.000000000000000e+00
"Vn_VDD:v" 1.200000000000000e+00
"Vn_VDD:i" -2.544859541074574e-10
"Vn_VDD:pwr" -3.053831449289488e-10
"Vn_Z:v" 0.000000000000000e+00
"Vn_Z:i" 1.708500629467678e-16
"Vn_Z:pwr" 0.000000000000000e+00
"n_Z" 1.199999494853305e+00
"n_D1" 0.000000000000000e+00
"n_SD" 1.200000000000000e+00
"Vn_D1:n" -7.518192228386811e-14
"Vn_D1:p" 7.518192228386811e-14
"Vn_GND:n" -2.548662296895861e-10
"Vn_GND:p" 2.548662296895861e-10
"Vn_SD:n" 5.105577141952642e-13
"Vn_SD:p" -5.105577141952642e-13
"Vn_VDD:n" 2.544859541074574e-10
"Vn_VDD:p" -2.544859541074574e-10
"Vn_Z:n" -1.708500629467678e-16
"Vn_Z:p" 1.708500629467678e-16
"time" 3.000000000000000e-09
"Vn_D1:v" 0.000000000000000e+00
"Vn_D1:i" 7.516694048201474e-14
"Vn_D1:pwr" 0.000000000000000e+00
"Vn_GND:v" 0.000000000000000e+00
"Vn_GND:i" 2.548661186337338e-10
"Vn_GND:pwr" 0.000000000000000e+00
"Vn_SD:v" 0.000000000000000e+00
"Vn_SD:i" -5.105756715053274e-13
"Vn_SD:pwr" -0.000000000000000e+00
"Vn_VDD:v" 1.200000000000000e+00
"Vn_VDD:i" -2.544855650317753e-10
"Vn_VDD:pwr" -3.053826780381303e-10
"Vn_Z:v" 0.000000000000000e+00
"Vn_Z:i" -8.381347752325822e-17
"Vn_Z:pwr" -0.000000000000000e+00
"n_Z" 1.199999494855202e+00
"n_D1" 0.000000000000000e+00
"n_SD" 1.200000000000000e+00
"Vn_D1:n" -7.516694048201474e-14
"Vn_D1:p" 7.516694048201474e-14
"Vn_GND:n" -2.548661186337338e-10
"Vn_GND:p" 2.548661186337338e-10
"Vn_SD:n" 5.105756715053274e-13
"Vn_SD:p" -5.105756715053274e-13
"Vn_VDD:n" 2.544855650317753e-10
"Vn_VDD:p" -2.544855650317753e-10
"Vn_Z:n" 8.381347752325822e-17
"Vn_Z:p" -8.381347752325822e-17
"time" 3.010000000000000e-09
"Vn_D1:v" 0.000000000000000e+00
"Vn_D1:i" 7.516708402257296e-14
"Vn_D1:pwr" 0.000000000000000e+00
"Vn_GND:v" 0.000000000000000e+00
"Vn_GND:i" 2.548661261677023e-10
"Vn_GND:pwr" 0.000000000000000e+00
"Vn_SD:v" 0.000000000000000e+00
"Vn_SD:i" -5.105752656768375e-13
"Vn_SD:pwr" -0.000000000000000e+00
"Vn_VDD:v" 1.200000000000000e+00
"Vn_VDD:i" -2.544855863763595e-10
"Vn_VDD:pwr" -3.053827036516314e-10
"Vn_Z:v" 0.000000000000000e+00
"Vn_Z:i" -6.309721794870431e-17
"Vn_Z:pwr" -0.000000000000000e+00
"n_Z" 1.199999494855083e+00
"n_D1" 0.000000000000000e+00
"n_SD" 1.200000000000000e+00
"Vn_D1:n" -7.516708402257296e-14
"Vn_D1:p" 7.516708402257296e-14
"Vn_GND:n" -2.548661261677023e-10
"Vn_GND:p" 2.548661261677023e-10
"Vn_SD:n" 5.105752656768375e-13
"Vn_SD:p" -5.105752656768375e-13
"Vn_VDD:n" 2.544855863763595e-10
"Vn_VDD:p" -2.544855863763595e-10
"Vn_Z:n" 6.309721794870431e-17
"Vn_Z:p" -6.309721794870431e-17
"time" 3.030000000000000e-09
"Vn_D1:v" 0.000000000000000e+00
"Vn_D1:i" 7.516814131112373e-14
"Vn_D1:pwr" 0.000000000000000e+00
"Vn_GND:v" 0.000000000000000e+00
"Vn_GND:i" 2.548661335141578e-10
"Vn_GND:pwr" 0.000000000000000e+00
"Vn_SD:v" 0.000000000000000e+00
"Vn_SD:i" -5.105738228343440e-13
"Vn_SD:pwr" -0.000000000000000e+00
"Vn_VDD:v" 1.200000000000000e+00
"Vn_VDD:i" -2.544856182088147e-10
"Vn_VDD:pwr" -3.053827418505776e-10
"Vn_Z:v" 0.000000000000000e+00
"Vn_Z:i" -4.110450856422382e-17
"Vn_Z:pwr" -0.000000000000000e+00
"n_Z" 1.199999494854928e+00
"n_D1" 0.000000000000000e+00
"n_SD" 1.200000000000000e+00
"Vn_D1:n" -7.516814131112373e-14
"Vn_D1:p" 7.516814131112373e-14
"Vn_GND:n" -2.548661335141578e-10
"Vn_GND:p" 2.548661335141578e-10
"Vn_SD:n" 5.105738228343440e-13
"Vn_SD:p" -5.105738228343440e-13
"Vn_VDD:n" 2.544856182088147e-10
"Vn_VDD:p" -2.544856182088147e-10
"Vn_Z:n" 4.110450856422382e-17
"Vn_Z:p" -4.110450856422382e-17
"time" 3.070000000000001e-09
"Vn_D1:v" 0.000000000000000e+00
"Vn_D1:i" 7.517013133008083e-14
"Vn_D1:pwr" 0.000000000000000e+00
"Vn_GND:v" 0.000000000000000e+00
"Vn_GND:i" 2.548661421596056e-10
"Vn_GND:pwr" 0.000000000000000e+00
"Vn_SD:v" 0.000000000000000e+00
"Vn_SD:i" -5.105716130749063e-13
"Vn_SD:pwr" -0.000000000000000e+00
"Vn_VDD:v" 1.200000000000000e+00
"Vn_VDD:i" -2.544856620811442e-10
"Vn_VDD:pwr" -3.053827944973730e-10
"Vn_Z:v" 0.000000000000000e+00
"Vn_Z:i" -1.202190832746887e-17
"Vn_Z:pwr" -0.000000000000000e+00
"n_Z" 1.199999494854727e+00
"n_D1" 0.000000000000000e+00
"n_SD" 1.200000000000000e+00
"Vn_D1:n" -7.517013133008083e-14
"Vn_D1:p" 7.517013133008083e-14
"Vn_GND:n" -2.548661421596056e-10
"Vn_GND:p" 2.548661421596056e-10
"Vn_SD:n" 5.105716130749063e-13
"Vn_SD:p" -5.105716130749063e-13
"Vn_VDD:n" 2.544856620811442e-10
"Vn_VDD:p" -2.544856620811442e-10
"Vn_Z:n" 1.202190832746887e-17
"Vn_Z:p" -1.202190832746887e-17
"time" 3.150000000000003e-09
"Vn_D1:v" 0.000000000000000e+00
"Vn_D1:i" 7.517144727717718e-14
"Vn_D1:pwr" 0.000000000000000e+00
"Vn_GND:v" 0.000000000000000e+00
"Vn_GND:i" 2.548661425359836e-10
"Vn_GND:pwr" 0.000000000000000e+00
"Vn_SD:v" 0.000000000000000e+00
"Vn_SD:i" -5.105701571432677e-13
"Vn_SD:pwr" -0.000000000000000e+00
"Vn_VDD:v" 1.200000000000000e+00
"Vn_VDD:i" -2.544856758671580e-10
"Vn_VDD:pwr" -3.053828110405896e-10
"Vn_Z:v" 0.000000000000000e+00
"Vn_Z:i" 7.283666214157468e-19
"Vn_Z:pwr" 0.000000000000000e+00
"n_Z" 1.199999494854642e+00
"n_D1" 0.000000000000000e+00
"n_SD" 1.200000000000000e+00
"Vn_D1:n" -7.517144727717718e-14
"Vn_D1:p" 7.517144727717718e-14
"Vn_GND:n" -2.548661425359836e-10
"Vn_GND:p" 2.548661425359836e-10
"Vn_SD:n" 5.105701571432677e-13
"Vn_SD:p" -5.105701571432677e-13
"Vn_VDD:n" 2.544856758671580e-10
"Vn_VDD:p" -2.544856758671580e-10
"Vn_Z:n" -7.283666214157468e-19
"Vn_Z:p" 7.283666214157468e-19
"time" 3.310000000000005e-09
"Vn_D1:v" 0.000000000000000e+00
"Vn_D1:i" 7.517113492036154e-14
"Vn_D1:pwr" 0.000000000000000e+00
"Vn_GND:v" 0.000000000000000e+00
"Vn_GND:i" 2.548661335145585e-10
"Vn_GND:pwr" 0.000000000000000e+00
"Vn_SD:v" 0.000000000000000e+00
"Vn_SD:i" -5.105703463813881e-13
"Vn_SD:pwr" -0.000000000000000e+00
"Vn_VDD:v" 1.200000000000000e+00
"Vn_VDD:i" -2.544856639974731e-10
"Vn_VDD:pwr" -3.053827967969677e-10
"Vn_Z:v" 0.000000000000000e+00
"Vn_Z:i" 2.282951255184168e-18
"Vn_Z:pwr" 0.000000000000000e+00
"n_Z" 1.199999494854687e+00
"n_D1" 0.000000000000000e+00
"n_SD" 1.200000000000000e+00
"Vn_D1:n" -7.517113492036154e-14
"Vn_D1:p" 7.517113492036154e-14
"Vn_GND:n" -2.548661335145585e-10
"Vn_GND:p" 2.548661335145585e-10
"Vn_SD:n" 5.105703463813881e-13
"Vn_SD:p" -5.105703463813881e-13
"Vn_VDD:n" 2.544856639974731e-10
"Vn_VDD:p" -2.544856639974731e-10
"Vn_Z:n" -2.282951255184168e-18
"Vn_Z:p" 2.282951255184168e-18
"time" 3.630000000000011e-09
"Vn_D1:v" 0.000000000000000e+00
"Vn_D1:i" 7.517155135026896e-14
"Vn_D1:pwr" 0.000000000000000e+00
"Vn_GND:v" 0.000000000000000e+00
"Vn_GND:i" 2.548661149894352e-10
"Vn_GND:pwr" 0.000000000000000e+00
"Vn_SD:v" 0.000000000000000e+00
"Vn_SD:i" -5.105701547873993e-13
"Vn_SD:pwr" -0.000000000000000e+00
"Vn_VDD:v" 1.200000000000000e+00
"Vn_VDD:i" -2.544856490765873e-10
"Vn_VDD:pwr" -3.053827788919047e-10
"Vn_Z:v" 0.000000000000000e+00
"Vn_Z:i" 2.268354174233653e-19
"Vn_Z:pwr" 0.000000000000000e+00
"n_Z" 1.199999494854763e+00
"n_D1" 0.000000000000000e+00
"n_SD" 1.200000000000000e+00
"Vn_D1:n" -7.517155135026896e-14
"Vn_D1:p" 7.517155135026896e-14
"Vn_GND:n" -2.548661149894352e-10
"Vn_GND:p" 2.548661149894352e-10
"Vn_SD:n" 5.105701547873993e-13
"Vn_SD:p" -5.105701547873993e-13
"Vn_VDD:n" 2.544856490765873e-10
"Vn_VDD:p" -2.544856490765873e-10
"Vn_Z:n" -2.268354174233653e-19
"Vn_Z:p" 2.268354174233653e-19
"time" 4.270000000000022e-09
"Vn_D1:v" 0.000000000000000e+00
"Vn_D1:i" 7.517092591156813e-14
"Vn_D1:pwr" 0.000000000000000e+00
"Vn_GND:v" 0.000000000000000e+00
"Vn_GND:i" 2.548660764281774e-10
"Vn_GND:pwr" 0.000000000000000e+00
"Vn_SD:v" 0.000000000000000e+00
"Vn_SD:i" -5.105705200616508e-13
"Vn_SD:pwr" -0.000000000000000e+00
"Vn_VDD:v" 1.200000000000000e+00
"Vn_VDD:i" -2.544856114959783e-10
"Vn_VDD:pwr" -3.053827337951740e-10
"Vn_Z:v" 0.000000000000000e+00
"Vn_Z:i" 2.321168267577314e-18
"Vn_Z:pwr" 0.000000000000000e+00
"n_Z" 1.199999494854917e+00
"n_D1" 0.000000000000000e+00
"n_SD" 1.200000000000000e+00
"Vn_D1:n" -7.517092591156813e-14
"Vn_D1:p" 7.517092591156813e-14
"Vn_GND:n" -2.548660764281774e-10
"Vn_GND:p" 2.548660764281774e-10
"Vn_SD:n" 5.105705200616508e-13
"Vn_SD:p" -5.105705200616508e-13
"Vn_VDD:n" 2.544856114959783e-10
"Vn_VDD:p" -2.544856114959783e-10
"Vn_Z:n" -2.321168267577314e-18
"Vn_Z:p" 2.321168267577314e-18
"time" 5.050000000000022e-09
"Vn_D1:v" 0.000000000000000e+00
"Vn_D1:i" 7.517166750417112e-14
"Vn_D1:pwr" 0.000000000000000e+00
"Vn_GND:v" 0.000000000000000e+00
"Vn_GND:i" 2.548660331442561e-10
"Vn_GND:pwr" 0.000000000000000e+00
"Vn_SD:v" 0.000000000000000e+00
"Vn_SD:i" -5.105700465960637e-13
"Vn_SD:pwr" -0.000000000000000e+00
"Vn_VDD:v" 1.200000000000000e+00
"Vn_VDD:i" -2.544855664089243e-10
"Vn_VDD:pwr" -3.053826796907092e-10
"Vn_Z:v" 0.000000000000000e+00
"Vn_Z:i" 4.378322142086667e-19
"Vn_Z:pwr" 0.000000000000000e+00
"n_Z" 1.199999494855120e+00
"n_D1" 0.000000000000000e+00
"n_SD" 1.200000000000000e+00
"Vn_D1:n" -7.517166750417112e-14
"Vn_D1:p" 7.517166750417112e-14
"Vn_GND:n" -2.548660331442561e-10
"Vn_GND:p" 2.548660331442561e-10
"Vn_SD:n" 5.105700465960637e-13
"Vn_SD:p" -5.105700465960637e-13
"Vn_VDD:n" 2.544855664089243e-10
"Vn_VDD:p" -2.544855664089243e-10
"Vn_Z:n" -4.378322142086667e-19
"Vn_Z:p" 4.378322142086667e-19
"time" 5.830000000000022e-09
"Vn_D1:v" 0.000000000000000e+00
"Vn_D1:i" 7.517100829774387e-14
"Vn_D1:pwr" 0.000000000000000e+00
"Vn_GND:v" 0.000000000000000e+00
"Vn_GND:i" 2.548659865596049e-10
"Vn_GND:pwr" 0.000000000000000e+00
"Vn_SD:v" 0.000000000000000e+00
"Vn_SD:i" -5.105704124460385e-13
"Vn_SD:pwr" -0.000000000000000e+00
"Vn_VDD:v" 1.200000000000000e+00
"Vn_VDD:i" -2.544855184659725e-10
"Vn_VDD:pwr" -3.053826221591670e-10
"Vn_Z:v" 0.000000000000000e+00
"Vn_Z:i" 2.244742354995736e-18
"Vn_Z:pwr" 0.000000000000000e+00
"n_Z" 1.199999494855317e+00
"n_D1" 0.000000000000000e+00
"n_SD" 1.200000000000000e+00
"Vn_D1:n" -7.517100829774387e-14
"Vn_D1:p" 7.517100829774387e-14
"Vn_GND:n" -2.548659865596049e-10
"Vn_GND:p" 2.548659865596049e-10
"Vn_SD:n" 5.105704124460385e-13
"Vn_SD:p" -5.105704124460385e-13
"Vn_VDD:n" 2.544855184659725e-10
"Vn_VDD:p" -2.544855184659725e-10
"Vn_Z:n" -2.244742354995736e-18
"Vn_Z:p" 2.244742354995736e-18
"time" 6.010000000000000e-09
"Vn_D1:v" 0.000000000000000e+00
"Vn_D1:i" 7.517156400560937e-14
"Vn_D1:pwr" 0.000000000000000e+00
"Vn_GND:v" 0.000000000000000e+00
"Vn_GND:i" 2.548659768091655e-10
"Vn_GND:pwr" 0.000000000000000e+00
"Vn_SD:v" 0.000000000000000e+00
"Vn_SD:i" -5.105702300642578e-13
"Vn_SD:pwr" -0.000000000000000e+00
"Vn_VDD:v" 1.200000000000000e+00
"Vn_VDD:i" -2.544855117423901e-10
"Vn_VDD:pwr" -3.053826140908681e-10
"Vn_Z:v" 0.000000000000000e+00
"Vn_Z:i" -8.364020943947210e-20
"Vn_Z:pwr" -0.000000000000000e+00
"n_Z" 1.199999494855354e+00
"n_D1" 0.000000000000000e+00
"n_SD" 1.200000000000000e+00
"Vn_D1:n" -7.517156400560937e-14
"Vn_D1:p" 7.517156400560937e-14
"Vn_GND:n" -2.548659768091655e-10
"Vn_GND:p" 2.548659768091655e-10
"Vn_SD:n" 5.105702300642578e-13
"Vn_SD:p" -5.105702300642578e-13
"Vn_VDD:n" 2.544855117423901e-10
"Vn_VDD:p" -2.544855117423901e-10
"Vn_Z:n" 8.364020943947210e-20
"Vn_Z:p" -8.364020943947210e-20
"time" 6.019999550200000e-09
"Vn_D1:v" 0.000000000000000e+00
"Vn_D1:i" 7.517123649874117e-14
"Vn_D1:pwr" 0.000000000000000e+00
"Vn_GND:v" 0.000000000000000e+00
"Vn_GND:i" 2.548659761422760e-10
"Vn_GND:pwr" 0.000000000000000e+00
"Vn_SD:v" 0.000000000000000e+00
"Vn_SD:i" -5.105701514510248e-13
"Vn_SD:pwr" -0.000000000000000e+00
"Vn_VDD:v" 1.200000000000000e+00
"Vn_VDD:i" -2.544855106827055e-10
"Vn_VDD:pwr" -3.053826128192466e-10
"Vn_Z:v" 0.000000000000000e+00
"Vn_Z:i" 1.977379116616175e-18
"Vn_Z:pwr" 0.000000000000000e+00
"n_Z" 1.199999494855358e+00
"n_D1" 0.000000000000000e+00
"n_SD" 1.200000000000000e+00
"Vn_D1:n" -7.517123649874117e-14
"Vn_D1:p" 7.517123649874117e-14
"Vn_GND:n" -2.548659761422760e-10
"Vn_GND:p" 2.548659761422760e-10
"Vn_SD:n" 5.105701514510248e-13
"Vn_SD:p" -5.105701514510248e-13
"Vn_VDD:n" 2.544855106827055e-10
"Vn_VDD:p" -2.544855106827055e-10
"Vn_Z:n" -1.977379116616175e-18
"Vn_Z:p" 1.977379116616175e-18
"time" 6.020000000000000e-09
"Vn_D1:v" 0.000000000000000e+00
"Vn_D1:i" -6.134735487280533e-07
"Vn_D1:pwr" -0.000000000000000e+00
"Vn_GND:v" 0.000000000000000e+00
"Vn_GND:i" 1.103289207403427e-07
"Vn_GND:pwr" 0.000000000000000e+00
"Vn_SD:v" 0.000000000000000e+00
"Vn_SD:i" 5.431342240514728e-11
"Vn_SD:pwr" 0.000000000000000e+00
"Vn_VDD:v" 1.200000000000000e+00
"Vn_VDD:i" 5.030897690576763e-07
"Vn_VDD:pwr" 6.037077228692115e-07
"Vn_Z:v" 0.000000000000000e+00
"Vn_Z:i" 4.899587735541152e-13
"Vn_Z:pwr" 0.000000000000000e+00
"n_Z" 1.199999494855400e+00
"n_D1" 2.456136039079392e-07
"n_SD" 1.200000000000000e+00
"Vn_D1:n" 6.134735487280533e-07
"Vn_D1:p" -6.134735487280533e-07
"Vn_GND:n" -1.103289207403427e-07
"Vn_GND:p" 1.103289207403427e-07
"Vn_SD:n" -5.431342240514728e-11
"Vn_SD:p" 5.431342240514728e-11
"Vn_VDD:n" -5.030897690576763e-07
"Vn_VDD:p" 5.030897690576763e-07
"Vn_Z:n" -4.899587735541152e-13
"Vn_Z:p" 4.899587735541152e-13
"time" 6.020000899600001e-09
"Vn_D1:v" 0.000000000000000e+00
"Vn_D1:i" -6.147226906531903e-07
"Vn_D1:pwr" -0.000000000000000e+00
"Vn_GND:v" 0.000000000000000e+00
"Vn_GND:i" 1.105449045339472e-07
"Vn_GND:pwr" 0.000000000000000e+00
"Vn_SD:v" 0.000000000000000e+00
"Vn_SD:i" 1.633540516450012e-10
"Vn_SD:pwr" 0.000000000000000e+00
"Vn_VDD:v" 1.200000000000000e+00
"Vn_VDD:i" 5.040109991608892e-07
"Vn_VDD:pwr" 6.048131989930670e-07
"Vn_Z:v" 0.000000000000000e+00
"Vn_Z:i" 3.377985064162336e-12
"Vn_Z:pwr" 0.000000000000000e+00
"n_Z" 1.199999494855973e+00
"n_D1" 7.368408117238176e-07
"n_SD" 1.200000000000000e+00
"Vn_D1:n" 6.147226906531903e-07
"Vn_D1:p" -6.147226906531903e-07
"Vn_GND:n" -1.105449045339472e-07
"Vn_GND:p" 1.105449045339472e-07
"Vn_SD:n" -1.633540516450012e-10
"Vn_SD:p" 1.633540516450012e-10
"Vn_VDD:n" -5.040109991608892e-07
"Vn_VDD:p" 5.040109991608892e-07
"Vn_Z:n" -3.377985064162336e-12
"Vn_Z:p" 3.377985064162336e-12
"time" 6.020002698800002e-09
"Vn_D1:v" 0.000000000000000e+00
"Vn_D1:i" -6.172051183950671e-07
"Vn_D1:pwr" -0.000000000000000e+00
"Vn_GND:v" 0.000000000000000e+00
"Vn_GND:i" 1.109743211796411e-07
"Vn_GND:pwr" 0.000000000000000e+00
"Vn_SD:v" 0.000000000000000e+00
"Vn_SD:i" 3.802194201614163e-10
"Vn_SD:pwr" 0.000000000000000e+00
"Vn_VDD:v" 1.200000000000000e+00
"Vn_VDD:i" 5.058376532668234e-07
"Vn_VDD:pwr" 6.070051839201880e-07
"Vn_Z:v" 0.000000000000000e+00
"Vn_Z:i" 1.286916086111514e-11
"Vn_Z:pwr" 0.000000000000000e+00
"n_Z" 1.199999494858730e+00
"n_D1" 1.719295227355574e-06
"n_SD" 1.200000000000000e+00
"Vn_D1:n" 6.172051183950671e-07
"Vn_D1:p" -6.172051183950671e-07
"Vn_GND:n" -1.109743211796411e-07
"Vn_GND:p" 1.109743211796411e-07
"Vn_SD:n" -3.802194201614163e-10
"Vn_SD:p" 3.802194201614163e-10
"Vn_VDD:n" -5.058376532668234e-07
"Vn_VDD:p" 5.058376532668234e-07
"Vn_Z:n" -1.286916086111514e-11
"Vn_Z:p" 1.286916086111514e-11
"time" 6.020006297200004e-09
"Vn_D1:v" 0.000000000000000e+00
"Vn_D1:i" -6.220761720614321e-07
"Vn_D1:pwr" -0.000000000000000e+00
"Vn_GND:v" 0.000000000000000e+00
"Vn_GND:i" 1.118180048754645e-07
"Vn_GND:pwr" 0.000000000000000e+00
"Vn_SD:v" 0.000000000000000e+00
"Vn_SD:i" 8.067411205852327e-10
"Vn_SD:pwr" 0.000000000000000e+00
"Vn_VDD:v" 1.200000000000000e+00
"Vn_VDD:i" 5.093983868149240e-07
"Vn_VDD:pwr" 6.112780641779087e-07
"Vn_Z:v" 0.000000000000000e+00
"Vn_Z:i" 5.298429663998079e-11
"Vn_Z:pwr" 0.000000000000000e+00
"n_Z" 1.199999494881086e+00
"n_D1" 3.684204058619088e-06
"n_SD" 1.200000000000000e+00
"Vn_D1:n" 6.220761720614321e-07
"Vn_D1:p" -6.220761720614321e-07
"Vn_GND:n" -1.118180048754645e-07
"Vn_GND:p" 1.118180048754645e-07
"Vn_SD:n" -8.067411205852327e-10
"Vn_SD:p" 8.067411205852327e-10
"Vn_VDD:n" -5.093983868149240e-07
"Vn_VDD:p" 5.093983868149240e-07
"Vn_Z:n" -5.298429663998079e-11
"Vn_Z:p" 5.298429663998079e-11
"time" 6.020013494000009e-09
"Vn_D1:v" 0.000000000000000e+00
"Vn_D1:i" -6.314573120001719e-07
"Vn_D1:pwr" -0.000000000000000e+00
"Vn_GND:v" 0.000000000000000e+00
"Vn_GND:i" 1.134461718148973e-07
"Vn_GND:pwr" 0.000000000000000e+00
"Vn_SD:v" 0.000000000000000e+00
"Vn_SD:i" 1.631536393959444e-09
"Vn_SD:pwr" 0.000000000000000e+00
"Vn_VDD:v" 1.200000000000000e+00
"Vn_VDD:i" 5.161723730759888e-07
"Vn_VDD:pwr" 6.194068476911865e-07
"Vn_Z:v" 0.000000000000000e+00
"Vn_Z:i" 2.071755911391208e-10
"Vn_Z:pwr" 0.000000000000000e+00
"n_Z" 1.199999495057720e+00
"n_D1" 7.614021721146115e-06
"n_SD" 1.200000000000000e+00
"Vn_D1:n" 6.314573120001719e-07
"Vn_D1:p" -6.314573120001719e-07
"Vn_GND:n" -1.134461718148973e-07
"Vn_GND:p" 1.134461718148973e-07
"Vn_SD:n" -1.631536393959444e-09
"Vn_SD:p" 1.631536393959444e-09
"Vn_VDD:n" -5.161723730759888e-07
"Vn_VDD:p" 5.161723730759888e-07
"Vn_Z:n" -2.071755911391208e-10
"Vn_Z:p" 2.071755911391208e-10
"time" 6.020027887600018e-09
"Vn_D1:v" 0.000000000000000e+00
"Vn_D1:i" -6.488790575324880e-07
"Vn_D1:pwr" -0.000000000000000e+00
"Vn_GND:v" 0.000000000000000e+00
"Vn_GND:i" 1.164770686872431e-07
"Vn_GND:pwr" 0.000000000000000e+00
"Vn_SD:v" 0.000000000000000e+00
"Vn_SD:i" 3.173252409584572e-09
"Vn_SD:pwr" 0.000000000000000e+00
"Vn_VDD:v" 1.200000000000000e+00
"Vn_VDD:i" 5.284864825285732e-07
"Vn_VDD:pwr" 6.341837790342878e-07
"Vn_Z:v" 0.000000000000000e+00
"Vn_Z:i" 7.421992671110614e-10
"Vn_Z:pwr" 0.000000000000000e+00
"n_Z" 1.199999496346864e+00
"n_D1" 1.547365704620017e-05
"n_SD" 1.200000000000000e+00
"Vn_D1:n" 6.488790575324880e-07
"Vn_D1:p" -6.488790575324880e-07
"Vn_GND:n" -1.164770686872431e-07
"Vn_GND:p" 1.164770686872431e-07
"Vn_SD:n" -3.173252409584572e-09
"Vn_SD:p" 3.173252409584572e-09
"Vn_VDD:n" -5.284864825285732e-07
"Vn_VDD:p" 5.284864825285732e-07
"Vn_Z:n" -7.421992671110614e-10
"Vn_Z:p" 7.421992671110614e-10
"time" 6.020056674800035e-09
"Vn_D1:v" 0.000000000000000e+00
"Vn_D1:i" -6.668232468353532e-07
"Vn_D1:pwr" -0.000000000000000e+00
"Vn_GND:v" 0.000000000000000e+00
"Vn_GND:i" 1.217781623479603e-07
"Vn_GND:pwr" 0.000000000000000e+00
"Vn_SD:v" 0.000000000000000e+00
"Vn_SD:i" 5.873681009389111e-09
"Vn_SD:pwr" 0.000000000000000e+00
"Vn_VDD:v" 1.200000000000000e+00
"Vn_VDD:i" 5.368146872719752e-07
"Vn_VDD:pwr" 6.441776247263702e-07
"Vn_Z:v" 0.000000000000000e+00
"Vn_Z:i" 2.356660952549008e-09
"Vn_Z:pwr" 0.000000000000000e+00
"n_Z" 1.199999504762666e+00
"n_D1" 3.119292769630828e-05
"n_SD" 1.200000000000000e+00
"Vn_D1:n" 6.668232468353532e-07
"Vn_D1:p" -6.668232468353532e-07
"Vn_GND:n" -1.217781623479603e-07
"Vn_GND:p" 1.217781623479603e-07
"Vn_SD:n" -5.873681009389111e-09
"Vn_SD:p" 5.873681009389111e-09
"Vn_VDD:n" -5.368146872719752e-07
"Vn_VDD:p" 5.368146872719752e-07
"Vn_Z:n" -2.356660952549008e-09
"Vn_Z:p" 2.356660952549008e-09
"time" 6.020114249200071e-09
"Vn_D1:v" 0.000000000000000e+00
"Vn_D1:i" -7.160308646902546e-07
"Vn_D1:pwr" -0.000000000000000e+00
"Vn_GND:v" 0.000000000000000e+00
"Vn_GND:i" 1.298707760064708e-07
"Vn_GND:pwr" 0.000000000000000e+00
"Vn_SD:v" 0.000000000000000e+00
"Vn_SD:i" 1.005636199386521e-08
"Vn_SD:pwr" 0.000000000000000e+00
"Vn_VDD:v" 1.200000000000000e+00
"Vn_VDD:i" 5.698094396029649e-07
"Vn_VDD:pwr" 6.837713275235579e-07
"Vn_Z:v" 0.000000000000000e+00
"Vn_Z:i" 6.294232432097816e-09
"Vn_Z:pwr" 0.000000000000000e+00
"n_Z" 1.199999551750402e+00
"n_D1" 6.263146899652450e-05
"n_SD" 1.200000000000000e+00
"Vn_D1:n" 7.160308646902546e-07
"Vn_D1:p" -7.160308646902546e-07
"Vn_GND:n" -1.298707760064708e-07
"Vn_GND:p" 1.298707760064708e-07
"Vn_SD:n" -1.005636199386521e-08
"Vn_SD:p" 1.005636199386521e-08
"Vn_VDD:n" -5.698094396029649e-07
"Vn_VDD:p" 5.698094396029649e-07
"Vn_Z:n" -6.294232432097816e-09
"Vn_Z:p" 6.294232432097816e-09
"time" 6.020229398000143e-09
"Vn_D1:v" 0.000000000000000e+00
"Vn_D1:i" -7.609125154544938e-07
"Vn_D1:pwr" -0.000000000000000e+00
"Vn_GND:v" 0.000000000000000e+00
"Vn_GND:i" 1.396473304390967e-07
"Vn_GND:pwr" 0.000000000000000e+00
"Vn_SD:v" 0.000000000000000e+00
"Vn_SD:i" 1.520646110494171e-08
"Vn_SD:pwr" 0.000000000000000e+00