HEADER
"PSFversion" "1.00"
"simulator" "spectre"
"version" "10.1.1.164.isr11"
"date" "3:01:57 PM, Fri Oct 17, 2014"
"design" "* Spectre Timing Acquisition"
"analysis type" "tran"
"analysis name" "transient1-017_transient1"
"analysis description" "Transient Analysis `transient1-017_transient1': time = (0 s -> 39 ns)"
"xVecSorted" "ascending"
"tolerance.relative" 0.00100000
"start" 0.00000
"outputstart" 0.00000
"stop" 3.90000e-08
"step" 3.90000e-11
"maxstep" 7.80000e-10
"ic" "all"
"useprevic" "no"
"skipdc" "no"
"reltol" 0.00100000
"abstol(V)" 1.00000e-06
"abstol(I)" 1.00000e-12
"temp" 25.0000
"tnom" 27.0000
"tempeffects" "all"
"errpreset" "moderate"
"method" "traponly"
"lteratio" 3.50000
"relref" "sigglobal"
"cmin" 0.00000
"gmin" 1.00000e-12
TYPE
"sweep" FLOAT DOUBLE PROP(
"key" "sweep"
)
"Tau" FLOAT DOUBLE PROP(
"units" "N*m"
"key" "node"
"tolerance" 1.00000e-06
)
"Alpha" FLOAT DOUBLE PROP(
"units" "rads/s^2"
"key" "node"
"tolerance" 1.00000e-06
)
"Omega" FLOAT DOUBLE PROP(
"units" "rads/s"
"key" "node"
"tolerance" 1.00000e-06
)
"Theta" FLOAT DOUBLE PROP(
"units" "rads"
"key" "node"
"tolerance" 1.00000e-06
)
"F" FLOAT DOUBLE PROP(
"units" "N"
"key" "node"
"tolerance" 1.00000e-06
)
"Imp" FLOAT DOUBLE PROP(
"units" "m/s^3"
"key" "node"
"tolerance" 1.00000e-06
)
"Acc" FLOAT DOUBLE PROP(
"units" "m/s^2"
"key" "node"
"tolerance" 1.00000e-06
)
"Vel" FLOAT DOUBLE PROP(
"units" "m/s"
"key" "node"
"tolerance" 1.00000e-06
)
"Pos" FLOAT DOUBLE PROP(
"units" "m"
"key" "node"
"tolerance" 1.00000e-06
)
"Phi" FLOAT DOUBLE PROP(
"units" "Wb"
"key" "node"
"tolerance" 1.00000e-09
)
"Q" FLOAT DOUBLE PROP(
"units" "coul"
"key" "node"
"tolerance" 1.00000e-14
)
"V" FLOAT DOUBLE PROP(
"units" "V"
"key" "node"
"tolerance" 1.00000e-06
)
"I" FLOAT DOUBLE PROP(
"units" "A"
"key" "branch"
"tolerance" 1.00000e-12
)
"MMF" FLOAT DOUBLE PROP(
"units" "A*turn"
"key" "node"
"tolerance" 1.00000e-12
)
"Wb" FLOAT DOUBLE PROP(
"units" "Wb"
"key" "node"
"tolerance" 1.00000e-09
)
"Temp" FLOAT DOUBLE PROP(
"units" "C"
"key" "node"
"tolerance" 0.000100000
)
"Pwr" FLOAT DOUBLE PROP(
"units" "W"
"key" "node"
"tolerance" 1.00000e-09
)
"U" FLOAT DOUBLE PROP(
"units" ""
"key" "node"
"tolerance" 1.00000e-06
)
"V/Sec" FLOAT DOUBLE PROP(
"units" "V/s"
"key" "node"
"tolerance" 0.000100000
)
"I/Sec" FLOAT DOUBLE PROP(
"units" "A/s"
"key" "node"
"tolerance" 1.00000e-06
)
"1/Sec" FLOAT DOUBLE PROP(
"units" "1/s"
"key" "node"
"tolerance" 0.000100000
)
"HOD" FLOAT DOUBLE PROP(
"units" ""
"key" "node"
"tolerance" 0.0100000
)
"A" FLOAT DOUBLE PROP(
"key" "inst"
)
"W" FLOAT DOUBLE PROP(
"key" "inst"
)
SWEEP
"time" "sweep" PROP(
"sweep_direction" 0
"units" "s"
"plot" 0
"grid" 1
)
TRACE
"Vn_D1:v" "V" PROP(
"units" "V"
)
"Vn_D1:i" "A" PROP(
"units" "A"
)
"Vn_D1:pwr" "W" PROP(
"units" "W"
)
"Vn_GND:v" "V" PROP(
"units" "V"
)
"Vn_GND:i" "A" PROP(
"units" "A"
)
"Vn_GND:pwr" "W" PROP(
"units" "W"
)
"Vn_SD:v" "V" PROP(
"units" "V"
)
"Vn_SD:i" "A" PROP(
"units" "A"
)
"Vn_SD:pwr" "W" PROP(
"units" "W"
)
"Vn_VDD:v" "V" PROP(
"units" "V"
)
"Vn_VDD:i" "A" PROP(
"units" "A"
)
"Vn_VDD:pwr" "W" PROP(
"units" "W"
)
"Vn_Z:v" "V" PROP(
"units" "V"
)
"Vn_Z:i" "A" PROP(
"units" "A"
)
"Vn_Z:pwr" "W" PROP(
"units" "W"
)
"n_Z" "V"
"n_D1" "V"
"n_SD" "V"
"Vn_D1:n" "I"
"Vn_D1:p" "I"
"Vn_GND:n" "I"
"Vn_GND:p" "I"
"Vn_SD:n" "I"
"Vn_SD:p" "I"
"Vn_VDD:n" "I"
"Vn_VDD:p" "I"
"Vn_Z:n" "I"
"Vn_Z:p" "I"
VALUE
"time" 0.000000000000000e+00
"Vn_D1:v" 0.000000000000000e+00
"Vn_D1:i" 7.517119452868265e-14
"Vn_D1:pwr" 0.000000000000000e+00
"Vn_GND:v" 0.000000000000000e+00
"Vn_GND:i" 2.548493107915442e-10
"Vn_GND:pwr" 0.000000000000000e+00
"Vn_SD:v" 0.000000000000000e+00
"Vn_SD:i" -5.105704018311279e-13
"Vn_SD:pwr" -0.000000000000000e+00
"Vn_VDD:v" 1.200000000000000e+00
"Vn_VDD:i" -2.544688430805070e-10
"Vn_VDD:pwr" -3.053626116966085e-10
"Vn_Z:v" 0.000000000000000e+00
"Vn_Z:i" 0.000000000000000e+00
"Vn_Z:pwr" 0.000000000000000e+00
"n_Z" 1.199999494927445e+00
"n_D1" 0.000000000000000e+00
"n_SD" 1.200000000000000e+00
"Vn_D1:n" -7.517119452868265e-14
"Vn_D1:p" 7.517119452868265e-14
"Vn_GND:n" -2.548493107915442e-10
"Vn_GND:p" 2.548493107915442e-10
"Vn_SD:n" 5.105704018311279e-13
"Vn_SD:p" -5.105704018311279e-13
"Vn_VDD:n" 2.544688430805070e-10
"Vn_VDD:p" -2.544688430805070e-10
"Vn_Z:n" 0.000000000000000e+00
"Vn_Z:p" 0.000000000000000e+00
"time" 3.900000000000000e-11
"Vn_D1:v" 0.000000000000000e+00
"Vn_D1:i" 7.484781182626991e-14
"Vn_D1:pwr" 0.000000000000000e+00
"Vn_GND:v" 0.000000000000000e+00
"Vn_GND:i" 2.548642668321860e-10
"Vn_GND:pwr" 0.000000000000000e+00
"Vn_SD:v" 0.000000000000000e+00
"Vn_SD:i" -5.109809306349722e-13
"Vn_SD:pwr" -0.000000000000000e+00
"Vn_VDD:v" 1.200000000000000e+00
"Vn_VDD:i" -2.544789732326867e-10
"Vn_VDD:pwr" -3.053747678792240e-10
"Vn_Z:v" 0.000000000000000e+00
"Vn_Z:i" -4.091976351480069e-15
"Vn_Z:pwr" -0.000000000000000e+00
"n_Z" 1.199999494888521e+00
"n_D1" 0.000000000000000e+00
"n_SD" 1.200000000000000e+00
"Vn_D1:n" -7.484781182626991e-14
"Vn_D1:p" 7.484781182626991e-14
"Vn_GND:n" -2.548642668321860e-10
"Vn_GND:p" 2.548642668321860e-10
"Vn_SD:n" 5.109809306349722e-13
"Vn_SD:p" -5.109809306349722e-13
"Vn_VDD:n" 2.544789732326867e-10
"Vn_VDD:p" -2.544789732326867e-10
"Vn_Z:n" 4.091976351480069e-15
"Vn_Z:p" -4.091976351480069e-15
"time" 1.170000000000000e-10
"Vn_D1:v" 0.000000000000000e+00
"Vn_D1:i" 7.504878236795297e-14
"Vn_D1:pwr" 0.000000000000000e+00
"Vn_GND:v" 0.000000000000000e+00
"Vn_GND:i" 2.548656989282505e-10
"Vn_GND:pwr" 0.000000000000000e+00
"Vn_SD:v" 0.000000000000000e+00
"Vn_SD:i" -5.107083382944422e-13
"Vn_SD:pwr" -0.000000000000000e+00
"Vn_VDD:v" 1.200000000000000e+00
"Vn_VDD:i" -2.544837169964085e-10
"Vn_VDD:pwr" -3.053804603956901e-10
"Vn_Z:v" 0.000000000000000e+00
"Vn_Z:i" -1.253876662025174e-15
"Vn_Z:pwr" -0.000000000000000e+00
"n_Z" 1.199999494864667e+00
"n_D1" 0.000000000000000e+00
"n_SD" 1.200000000000000e+00
"Vn_D1:n" -7.504878236795297e-14
"Vn_D1:p" 7.504878236795297e-14
"Vn_GND:n" -2.548656989282505e-10
"Vn_GND:p" 2.548656989282505e-10
"Vn_SD:n" 5.107083382944422e-13
"Vn_SD:p" -5.107083382944422e-13
"Vn_VDD:n" 2.544837169964085e-10
"Vn_VDD:p" -2.544837169964085e-10
"Vn_Z:n" 1.253876662025174e-15
"Vn_Z:p" -1.253876662025174e-15
"time" 2.730000000000000e-10
"Vn_D1:v" 0.000000000000000e+00
"Vn_D1:i" 7.521592647297073e-14
"Vn_D1:pwr" 0.000000000000000e+00
"Vn_GND:v" 0.000000000000000e+00
"Vn_GND:i" 2.548665460087244e-10
"Vn_GND:pwr" 0.000000000000000e+00
"Vn_SD:v" 0.000000000000000e+00
"Vn_SD:i" -5.105193272775974e-13
"Vn_SD:pwr" -0.000000000000000e+00
"Vn_VDD:v" 1.200000000000000e+00
"Vn_VDD:i" -2.544866450889729e-10
"Vn_VDD:pwr" -3.053839741067675e-10
"Vn_Z:v" 0.000000000000000e+00
"Vn_Z:i" 4.752655574929956e-16
"Vn_Z:pwr" 0.000000000000000e+00
"n_Z" 1.199999494849854e+00
"n_D1" 0.000000000000000e+00
"n_SD" 1.200000000000000e+00
"Vn_D1:n" -7.521592647297073e-14
"Vn_D1:p" 7.521592647297073e-14
"Vn_GND:n" -2.548665460087244e-10
"Vn_GND:p" 2.548665460087244e-10
"Vn_SD:n" 5.105193272775974e-13
"Vn_SD:p" -5.105193272775974e-13
"Vn_VDD:n" 2.544866450889729e-10
"Vn_VDD:p" -2.544866450889729e-10
"Vn_Z:n" -4.752655574929956e-16
"Vn_Z:p" 4.752655574929956e-16
"time" 5.850000000000002e-10
"Vn_D1:v" 0.000000000000000e+00
"Vn_D1:i" 7.514396925948048e-14
"Vn_D1:pwr" 0.000000000000000e+00
"Vn_GND:v" 0.000000000000000e+00
"Vn_GND:i" 2.548661445295697e-10
"Vn_GND:pwr" 0.000000000000000e+00
"Vn_SD:v" 0.000000000000000e+00
"Vn_SD:i" -5.106019306704415e-13
"Vn_SD:pwr" -0.000000000000000e+00
"Vn_VDD:v" 1.200000000000000e+00
"Vn_VDD:i" -2.544853259664619e-10
"Vn_VDD:pwr" -3.053823911597543e-10
"Vn_Z:v" 0.000000000000000e+00
"Vn_Z:i" -2.992135230501233e-16
"Vn_Z:pwr" -0.000000000000000e+00
"n_Z" 1.199999494856553e+00
"n_D1" 0.000000000000000e+00
"n_SD" 1.200000000000000e+00
"Vn_D1:n" -7.514396925948048e-14
"Vn_D1:p" 7.514396925948048e-14
"Vn_GND:n" -2.548661445295697e-10
"Vn_GND:p" 2.548661445295697e-10
"Vn_SD:n" 5.106019306704415e-13
"Vn_SD:p" -5.106019306704415e-13
"Vn_VDD:n" 2.544853259664619e-10
"Vn_VDD:p" -2.544853259664619e-10
"Vn_Z:n" 2.992135230501233e-16
"Vn_Z:p" -2.992135230501233e-16
"time" 1.209000000000000e-09
"Vn_D1:v" 0.000000000000000e+00
"Vn_D1:i" 7.519262258056146e-14
"Vn_D1:pwr" 0.000000000000000e+00
"Vn_GND:v" 0.000000000000000e+00
"Vn_GND:i" 2.548663748252254e-10
"Vn_GND:pwr" 0.000000000000000e+00
"Vn_SD:v" 0.000000000000000e+00
"Vn_SD:i" -5.105453241156374e-13
"Vn_SD:pwr" -0.000000000000000e+00
"Vn_VDD:v" 1.200000000000000e+00
"Vn_VDD:i" -2.544861870471758e-10
"Vn_VDD:pwr" -3.053834244566109e-10
"Vn_Z:v" 0.000000000000000e+00
"Vn_Z:i" 2.408331671366122e-16
"Vn_Z:pwr" 0.000000000000000e+00
"n_Z" 1.199999494852110e+00
"n_D1" 0.000000000000000e+00
"n_SD" 1.200000000000000e+00
"Vn_D1:n" -7.519262258056146e-14
"Vn_D1:p" 7.519262258056146e-14
"Vn_GND:n" -2.548663748252254e-10
"Vn_GND:p" 2.548663748252254e-10
"Vn_SD:n" 5.105453241156374e-13
"Vn_SD:p" -5.105453241156374e-13
"Vn_VDD:n" 2.544861870471758e-10
"Vn_VDD:p" -2.544861870471758e-10
"Vn_Z:n" -2.408331671366122e-16
"Vn_Z:p" 2.408331671366122e-16
"time" 1.989000000000000e-09
"Vn_D1:v" 0.000000000000000e+00
"Vn_D1:i" 7.515385833866470e-14
"Vn_D1:pwr" 0.000000000000000e+00
"Vn_GND:v" 0.000000000000000e+00
"Vn_GND:i" 2.548661114363048e-10
"Vn_GND:pwr" 0.000000000000000e+00
"Vn_SD:v" 0.000000000000000e+00
"Vn_SD:i" -5.105909083275842e-13
"Vn_SD:pwr" -0.000000000000000e+00
"Vn_VDD:v" 1.200000000000000e+00
"Vn_VDD:i" -2.544854163148646e-10
"Vn_VDD:pwr" -3.053824995778375e-10
"Vn_Z:v" 0.000000000000000e+00
"Vn_Z:i" -1.994312016033984e-16
"Vn_Z:pwr" -0.000000000000000e+00
"n_Z" 1.199999494856048e+00
"n_D1" 0.000000000000000e+00
"n_SD" 1.200000000000000e+00
"Vn_D1:n" -7.515385833866470e-14
"Vn_D1:p" 7.515385833866470e-14
"Vn_GND:n" -2.548661114363048e-10
"Vn_GND:p" 2.548661114363048e-10
"Vn_SD:n" 5.105909083275842e-13
"Vn_SD:p" -5.105909083275842e-13
"Vn_VDD:n" 2.544854163148646e-10
"Vn_VDD:p" -2.544854163148646e-10
"Vn_Z:n" 1.994312016033984e-16
"Vn_Z:p" -1.994312016033984e-16
"time" 2.769000000000001e-09
"Vn_D1:v" 0.000000000000000e+00
"Vn_D1:i" 7.518548417440138e-14
"Vn_D1:pwr" 0.000000000000000e+00
"Vn_GND:v" 0.000000000000000e+00
"Vn_GND:i" 2.548662477294764e-10
"Vn_GND:pwr" 0.000000000000000e+00
"Vn_SD:v" 0.000000000000000e+00
"Vn_SD:i" -5.105532557847952e-13
"Vn_SD:pwr" -0.000000000000000e+00
"Vn_VDD:v" 1.200000000000000e+00
"Vn_VDD:i" -2.544859716794851e-10
"Vn_VDD:pwr" -3.053831660153821e-10
"Vn_Z:v" 0.000000000000000e+00
"Vn_Z:i" 1.687453734552812e-16
"Vn_Z:pwr" 0.000000000000000e+00
"n_Z" 1.199999494853129e+00
"n_D1" 0.000000000000000e+00
"n_SD" 1.200000000000000e+00
"Vn_D1:n" -7.518548417440138e-14
"Vn_D1:p" 7.518548417440138e-14
"Vn_GND:n" -2.548662477294764e-10
"Vn_GND:p" 2.548662477294764e-10
"Vn_SD:n" 5.105532557847952e-13
"Vn_SD:p" -5.105532557847952e-13
"Vn_VDD:n" 2.544859716794851e-10
"Vn_VDD:p" -2.544859716794851e-10
"Vn_Z:n" -1.687453734552812e-16
"Vn_Z:p" 1.687453734552812e-16
"time" 3.000000000000000e-09
"Vn_D1:v" 0.000000000000000e+00
"Vn_D1:i" 7.516476094191240e-14
"Vn_D1:pwr" 0.000000000000000e+00
"Vn_GND:v" 0.000000000000000e+00
"Vn_GND:i" 2.548661071079504e-10
"Vn_GND:pwr" 0.000000000000000e+00
"Vn_SD:v" 0.000000000000000e+00
"Vn_SD:i" -5.105788278644166e-13
"Vn_SD:pwr" -0.000000000000000e+00
"Vn_VDD:v" 1.200000000000000e+00
"Vn_VDD:i" -2.544855451485458e-10
"Vn_VDD:pwr" -3.053826541782549e-10
"Vn_Z:v" 0.000000000000000e+00
"Vn_Z:i" -8.997073457962502e-17
"Vn_Z:pwr" -0.000000000000000e+00
"n_Z" 1.199999494855349e+00
"n_D1" 0.000000000000000e+00
"n_SD" 1.200000000000000e+00
"Vn_D1:n" -7.516476094191240e-14
"Vn_D1:p" 7.516476094191240e-14
"Vn_GND:n" -2.548661071079504e-10
"Vn_GND:p" 2.548661071079504e-10
"Vn_SD:n" 5.105788278644166e-13
"Vn_SD:p" -5.105788278644166e-13
"Vn_VDD:n" 2.544855451485458e-10
"Vn_VDD:p" -2.544855451485458e-10
"Vn_Z:n" 8.997073457962502e-17
"Vn_Z:p" -8.997073457962502e-17
"time" 3.010000000000000e-09
"Vn_D1:v" 0.000000000000000e+00
"Vn_D1:i" 7.516498940721852e-14
"Vn_D1:pwr" 0.000000000000000e+00
"Vn_GND:v" 0.000000000000000e+00
"Vn_GND:i" 2.548661175107888e-10
"Vn_GND:pwr" 0.000000000000000e+00
"Vn_SD:v" 0.000000000000000e+00
"Vn_SD:i" -5.105771844931035e-13
"Vn_SD:pwr" -0.000000000000000e+00
"Vn_VDD:v" 1.200000000000000e+00
"Vn_VDD:i" -2.544855703525663e-10
"Vn_VDD:pwr" -3.053826844230795e-10
"Vn_Z:v" 0.000000000000000e+00
"Vn_Z:i" -6.644317514027943e-17
"Vn_Z:pwr" -0.000000000000000e+00
"n_Z" 1.199999494855186e+00
"n_D1" 0.000000000000000e+00
"n_SD" 1.200000000000000e+00
"Vn_D1:n" -7.516498940721852e-14
"Vn_D1:p" 7.516498940721852e-14
"Vn_GND:n" -2.548661175107888e-10
"Vn_GND:p" 2.548661175107888e-10
"Vn_SD:n" 5.105771844931035e-13
"Vn_SD:p" -5.105771844931035e-13
"Vn_VDD:n" 2.544855703525663e-10
"Vn_VDD:p" -2.544855703525663e-10
"Vn_Z:n" 6.644317514027943e-17
"Vn_Z:p" -6.644317514027943e-17
"time" 3.030000000000000e-09
"Vn_D1:v" 0.000000000000000e+00
"Vn_D1:i" 7.516704661537172e-14
"Vn_D1:pwr" 0.000000000000000e+00
"Vn_GND:v" 0.000000000000000e+00
"Vn_GND:i" 2.548661284039298e-10
"Vn_GND:pwr" 0.000000000000000e+00
"Vn_SD:v" 0.000000000000000e+00
"Vn_SD:i" -5.105749250177165e-13
"Vn_SD:pwr" -0.000000000000000e+00
"Vn_VDD:v" 1.200000000000000e+00
"Vn_VDD:i" -2.544856101647289e-10
"Vn_VDD:pwr" -3.053827321976746e-10
"Vn_Z:v" 0.000000000000000e+00
"Vn_Z:i" -4.187957728906110e-17
"Vn_Z:pwr" -0.000000000000000e+00
"n_Z" 1.199999494854982e+00
"n_D1" 0.000000000000000e+00
"n_SD" 1.200000000000000e+00
"Vn_D1:n" -7.516704661537172e-14
"Vn_D1:p" 7.516704661537172e-14
"Vn_GND:n" -2.548661284039298e-10
"Vn_GND:p" 2.548661284039298e-10
"Vn_SD:n" 5.105749250177165e-13
"Vn_SD:p" -5.105749250177165e-13
"Vn_VDD:n" 2.544856101647289e-10
"Vn_VDD:p" -2.544856101647289e-10
"Vn_Z:n" 4.187957728906110e-17
"Vn_Z:p" -4.187957728906110e-17
"time" 3.070000000000001e-09
"Vn_D1:v" 0.000000000000000e+00
"Vn_D1:i" 7.516991729847248e-14
"Vn_D1:pwr" 0.000000000000000e+00
"Vn_GND:v" 0.000000000000000e+00
"Vn_GND:i" 2.548661408206139e-10
"Vn_GND:pwr" 0.000000000000000e+00
"Vn_SD:v" 0.000000000000000e+00
"Vn_SD:i" -5.105718225355228e-13
"Vn_SD:pwr" -0.000000000000000e+00
"Vn_VDD:v" 1.200000000000000e+00
"Vn_VDD:i" -2.544856616254122e-10
"Vn_VDD:pwr" -3.053827939504946e-10
"Vn_Z:v" 0.000000000000000e+00
"Vn_Z:i" -1.076648125810532e-17
"Vn_Z:pwr" -0.000000000000000e+00
"n_Z" 1.199999494854725e+00
"n_D1" 0.000000000000000e+00
"n_SD" 1.200000000000000e+00
"Vn_D1:n" -7.516991729847248e-14
"Vn_D1:p" 7.516991729847248e-14
"Vn_GND:n" -2.548661408206139e-10
"Vn_GND:p" 2.548661408206139e-10
"Vn_SD:n" 5.105718225355228e-13
"Vn_SD:p" -5.105718225355228e-13
"Vn_VDD:n" 2.544856616254122e-10
"Vn_VDD:p" -2.544856616254122e-10
"Vn_Z:n" 1.076648125810532e-17
"Vn_Z:p" -1.076648125810532e-17
"time" 3.150000000000003e-09
"Vn_D1:v" 0.000000000000000e+00
"Vn_D1:i" 7.517153586372206e-14
"Vn_D1:pwr" 0.000000000000000e+00
"Vn_GND:v" 0.000000000000000e+00
"Vn_GND:i" 2.548661434692100e-10
"Vn_GND:pwr" 0.000000000000000e+00
"Vn_SD:v" 0.000000000000000e+00
"Vn_SD:i" -5.105700957478503e-13
"Vn_SD:pwr" -0.000000000000000e+00
"Vn_VDD:v" 1.200000000000000e+00
"Vn_VDD:i" -2.544856807793440e-10
"Vn_VDD:pwr" -3.053828169352128e-10
"Vn_Z:v" 0.000000000000000e+00
"Vn_Z:i" 1.361502202168464e-18
"Vn_Z:pwr" 0.000000000000000e+00
"n_Z" 1.199999494854634e+00
"n_D1" 0.000000000000000e+00
"n_SD" 1.200000000000000e+00
"Vn_D1:n" -7.517153586372206e-14
"Vn_D1:p" 7.517153586372206e-14
"Vn_GND:n" -2.548661434692100e-10
"Vn_GND:p" 2.548661434692100e-10
"Vn_SD:n" 5.105700957478503e-13
"Vn_SD:p" -5.105700957478503e-13
"Vn_VDD:n" 2.544856807793440e-10
"Vn_VDD:p" -2.544856807793440e-10
"Vn_Z:n" -1.361502202168464e-18
"Vn_Z:p" 1.361502202168464e-18
"time" 3.310000000000005e-09
"Vn_D1:v" 0.000000000000000e+00
"Vn_D1:i" 7.517123046984040e-14
"Vn_D1:pwr" 0.000000000000000e+00
"Vn_GND:v" 0.000000000000000e+00
"Vn_GND:i" 2.548661334604138e-10
"Vn_GND:pwr" 0.000000000000000e+00
"Vn_SD:v" 0.000000000000000e+00
"Vn_SD:i" -5.105702301890253e-13
"Vn_SD:pwr" -0.000000000000000e+00
"Vn_VDD:v" 1.200000000000000e+00
"Vn_VDD:i" -2.544856625558889e-10
"Vn_VDD:pwr" -3.053827950670667e-10
"Vn_Z:v" 0.000000000000000e+00
"Vn_Z:i" 1.545840594241357e-18
"Vn_Z:pwr" 0.000000000000000e+00
"n_Z" 1.199999494854690e+00
"n_D1" 0.000000000000000e+00
"n_SD" 1.200000000000000e+00
"Vn_D1:n" -7.517123046984040e-14
"Vn_D1:p" 7.517123046984040e-14
"Vn_GND:n" -2.548661334604138e-10
"Vn_GND:p" 2.548661334604138e-10
"Vn_SD:n" 5.105702301890253e-13
"Vn_SD:p" -5.105702301890253e-13
"Vn_VDD:n" 2.544856625558889e-10
"Vn_VDD:p" -2.544856625558889e-10
"Vn_Z:n" -1.545840594241357e-18
"Vn_Z:p" 1.545840594241357e-18
"time" 3.630000000000011e-09
"Vn_D1:v" 0.000000000000000e+00
"Vn_D1:i" 7.517124530351439e-14
"Vn_D1:pwr" 0.000000000000000e+00
"Vn_GND:v" 0.000000000000000e+00
"Vn_GND:i" 2.548661137803827e-10
"Vn_GND:pwr" 0.000000000000000e+00
"Vn_SD:v" 0.000000000000000e+00
"Vn_SD:i" -5.105704869287772e-13
"Vn_SD:pwr" -0.000000000000000e+00
"Vn_VDD:v" 1.200000000000000e+00
"Vn_VDD:i" -2.544856488782991e-10
"Vn_VDD:pwr" -3.053827786539589e-10
"Vn_Z:v" 0.000000000000000e+00
"Vn_Z:i" 2.308439665516509e-19
"Vn_Z:pwr" 0.000000000000000e+00
"n_Z" 1.199999494854759e+00
"n_D1" 0.000000000000000e+00
"n_SD" 1.200000000000000e+00
"Vn_D1:n" -7.517124530351439e-14
"Vn_D1:p" 7.517124530351439e-14
"Vn_GND:n" -2.548661137803827e-10
"Vn_GND:p" 2.548661137803827e-10
"Vn_SD:n" 5.105704869287772e-13
"Vn_SD:p" -5.105704869287772e-13
"Vn_VDD:n" 2.544856488782991e-10
"Vn_VDD:p" -2.544856488782991e-10
"Vn_Z:n" -2.308439665516509e-19
"Vn_Z:p" 2.308439665516509e-19
"time" 4.270000000000022e-09
"Vn_D1:v" 0.000000000000000e+00
"Vn_D1:i" 7.517133348121450e-14
"Vn_D1:pwr" 0.000000000000000e+00
"Vn_GND:v" 0.000000000000000e+00
"Vn_GND:i" 2.548660782710570e-10
"Vn_GND:pwr" 0.000000000000000e+00
"Vn_SD:v" 0.000000000000000e+00
"Vn_SD:i" -5.105700847003886e-13
"Vn_SD:pwr" -0.000000000000000e+00
"Vn_VDD:v" 1.200000000000000e+00
"Vn_VDD:i" -2.544856150214940e-10
"Vn_VDD:pwr" -3.053827380257928e-10
"Vn_Z:v" 0.000000000000000e+00
"Vn_Z:i" 1.837215185683547e-18
"Vn_Z:pwr" 0.000000000000000e+00
"n_Z" 1.199999494854921e+00
"n_D1" 0.000000000000000e+00
"n_SD" 1.200000000000000e+00
"Vn_D1:n" -7.517133348121450e-14
"Vn_D1:p" 7.517133348121450e-14
"Vn_GND:n" -2.548660782710570e-10
"Vn_GND:p" 2.548660782710570e-10
"Vn_SD:n" 5.105700847003886e-13
"Vn_SD:p" -5.105700847003886e-13
"Vn_VDD:n" 2.544856150214940e-10
"Vn_VDD:p" -2.544856150214940e-10
"Vn_Z:n" -1.837215185683547e-18
"Vn_Z:p" 1.837215185683547e-18
"time" 5.050000000000022e-09
"Vn_D1:v" 0.000000000000000e+00
"Vn_D1:i" 7.517127309872203e-14
"Vn_D1:pwr" 0.000000000000000e+00
"Vn_GND:v" 0.000000000000000e+00
"Vn_GND:i" 2.548660313227150e-10
"Vn_GND:pwr" 0.000000000000000e+00
"Vn_SD:v" 0.000000000000000e+00
"Vn_SD:i" -5.105704628279194e-13
"Vn_SD:pwr" -0.000000000000000e+00
"Vn_VDD:v" 1.200000000000000e+00
"Vn_VDD:i" -2.544855591119881e-10
"Vn_VDD:pwr" -3.053826709343857e-10
"Vn_Z:v" 0.000000000000000e+00
"Vn_Z:i" 3.555274363700023e-19
"Vn_Z:pwr" 0.000000000000000e+00
"n_Z" 1.199999494855130e+00
"n_D1" 0.000000000000000e+00
"n_SD" 1.200000000000000e+00
"Vn_D1:n" -7.517127309872203e-14
"Vn_D1:p" 7.517127309872203e-14
"Vn_GND:n" -2.548660313227150e-10
"Vn_GND:p" 2.548660313227150e-10
"Vn_SD:n" 5.105704628279194e-13
"Vn_SD:p" -5.105704628279194e-13
"Vn_VDD:n" 2.544855591119881e-10
"Vn_VDD:p" -2.544855591119881e-10
"Vn_Z:n" -3.555274363700023e-19
"Vn_Z:p" 3.555274363700023e-19
"time" 5.830000000000022e-09
"Vn_D1:v" 0.000000000000000e+00
"Vn_D1:i" 7.517120780191562e-14
"Vn_D1:pwr" 0.000000000000000e+00
"Vn_GND:v" 0.000000000000000e+00
"Vn_GND:i" 2.548659871739083e-10
"Vn_GND:pwr" 0.000000000000000e+00
"Vn_SD:v" 0.000000000000000e+00
"Vn_SD:i" -5.105702274296327e-13
"Vn_SD:pwr" -0.000000000000000e+00
"Vn_VDD:v" 1.200000000000000e+00
"Vn_VDD:i" -2.544855251100128e-10
"Vn_VDD:pwr" -3.053826301320154e-10
"Vn_Z:v" 0.000000000000000e+00
"Vn_Z:i" 1.666360928406576e-18
"Vn_Z:pwr" 0.000000000000000e+00
"n_Z" 1.199999494855322e+00
"n_D1" 0.000000000000000e+00
"n_SD" 1.200000000000000e+00
"Vn_D1:n" -7.517120780191562e-14
"Vn_D1:p" 7.517120780191562e-14
"Vn_GND:n" -2.548659871739083e-10
"Vn_GND:p" 2.548659871739083e-10
"Vn_SD:n" 5.105702274296327e-13
"Vn_SD:p" -5.105702274296327e-13
"Vn_VDD:n" 2.544855251100128e-10
"Vn_VDD:p" -2.544855251100128e-10
"Vn_Z:n" -1.666360928406576e-18
"Vn_Z:p" 1.666360928406576e-18
"time" 6.010000000000000e-09
"Vn_D1:v" 0.000000000000000e+00
"Vn_D1:i" 7.517141352180086e-14
"Vn_D1:pwr" 0.000000000000000e+00
"Vn_GND:v" 0.000000000000000e+00
"Vn_GND:i" 2.548659763410882e-10
"Vn_GND:pwr" 0.000000000000000e+00
"Vn_SD:v" 0.000000000000000e+00
"Vn_SD:i" -5.105702992282278e-13
"Vn_SD:pwr" -0.000000000000000e+00
"Vn_VDD:v" 1.200000000000000e+00
"Vn_VDD:i" -2.544855034203089e-10
"Vn_VDD:pwr" -3.053826041043707e-10
"Vn_Z:v" 0.000000000000000e+00
"Vn_Z:i" 1.851268260969548e-19
"Vn_Z:pwr" 0.000000000000000e+00
"n_Z" 1.199999494855363e+00
"n_D1" 0.000000000000000e+00
"n_SD" 1.200000000000000e+00
"Vn_D1:n" -7.517141352180086e-14
"Vn_D1:p" 7.517141352180086e-14
"Vn_GND:n" -2.548659763410882e-10
"Vn_GND:p" 2.548659763410882e-10
"Vn_SD:n" 5.105702992282278e-13
"Vn_SD:p" -5.105702992282278e-13
"Vn_VDD:n" 2.544855034203089e-10
"Vn_VDD:p" -2.544855034203089e-10
"Vn_Z:n" -1.851268260969548e-19
"Vn_Z:p" 1.851268260969548e-19
"time" 6.019999550200000e-09
"Vn_D1:v" 0.000000000000000e+00
"Vn_D1:i" 7.517115115843239e-14
"Vn_D1:pwr" 0.000000000000000e+00
"Vn_GND:v" 0.000000000000000e+00
"Vn_GND:i" 2.548659756678157e-10
"Vn_GND:pwr" 0.000000000000000e+00
"Vn_SD:v" 0.000000000000000e+00
"Vn_SD:i" -5.105703700612927e-13
"Vn_SD:pwr" -0.000000000000000e+00
"Vn_VDD:v" 1.200000000000000e+00
"Vn_VDD:i" -2.544855089452544e-10
"Vn_VDD:pwr" -3.053826107343052e-10
"Vn_Z:v" 0.000000000000000e+00
"Vn_Z:i" 9.849076113745737e-19
"Vn_Z:pwr" 0.000000000000000e+00
"n_Z" 1.199999494855365e+00
"n_D1" 0.000000000000000e+00
"n_SD" 1.200000000000000e+00
"Vn_D1:n" -7.517115115843239e-14
"Vn_D1:p" 7.517115115843239e-14
"Vn_GND:n" -2.548659756678157e-10
"Vn_GND:p" 2.548659756678157e-10
"Vn_SD:n" 5.105703700612927e-13
"Vn_SD:p" -5.105703700612927e-13
"Vn_VDD:n" 2.544855089452544e-10
"Vn_VDD:p" -2.544855089452544e-10
"Vn_Z:n" -9.849076113745737e-19
"Vn_Z:p" 9.849076113745737e-19
"time" 6.020000000000000e-09
"Vn_D1:v" 0.000000000000000e+00
"Vn_D1:i" -6.134735487274693e-07
"Vn_D1:pwr" -0.000000000000000e+00
"Vn_GND:v" 0.000000000000000e+00
"Vn_GND:i" 1.103289223822130e-07
"Vn_GND:pwr" 0.000000000000000e+00
"Vn_SD:v" 0.000000000000000e+00
"Vn_SD:i" 5.431369368061746e-11
"Vn_SD:pwr" 0.000000000000000e+00
"Vn_VDD:v" 1.200000000000000e+00
"Vn_VDD:i" 5.030897696445857e-07
"Vn_VDD:pwr" 6.037077235735028e-07
"Vn_Z:v" 0.000000000000000e+00
"Vn_Z:i" 4.895554149306849e-13
"Vn_Z:pwr" 0.000000000000000e+00
"n_Z" 1.199999494855419e+00
"n_D1" 2.456136039079392e-07
"n_SD" 1.200000000000000e+00
"Vn_D1:n" 6.134735487274693e-07
"Vn_D1:p" -6.134735487274693e-07
"Vn_GND:n" -1.103289223822130e-07
"Vn_GND:p" 1.103289223822130e-07
"Vn_SD:n" -5.431369368061746e-11
"Vn_SD:p" 5.431369368061746e-11
"Vn_VDD:n" -5.030897696445857e-07
"Vn_VDD:p" 5.030897696445857e-07
"Vn_Z:n" -4.895554149306849e-13
"Vn_Z:p" 4.895554149306849e-13
"time" 6.020000899600001e-09
"Vn_D1:v" 0.000000000000000e+00
"Vn_D1:i" -6.147226909453019e-07
"Vn_D1:pwr" -0.000000000000000e+00
"Vn_GND:v" 0.000000000000000e+00
"Vn_GND:i" 1.105449067087348e-07
"Vn_GND:pwr" 0.000000000000000e+00
"Vn_SD:v" 0.000000000000000e+00
"Vn_SD:i" 1.633543654005445e-10
"Vn_SD:pwr" 0.000000000000000e+00
"Vn_VDD:v" 1.200000000000000e+00
"Vn_VDD:i" 5.040110031643747e-07
"Vn_VDD:pwr" 6.048132037972497e-07
"Vn_Z:v" 0.000000000000000e+00
"Vn_Z:i" 3.371991362057742e-12
"Vn_Z:pwr" 0.000000000000000e+00
"n_Z" 1.199999494856159e+00
"n_D1" 7.368408117238176e-07
"n_SD" 1.200000000000000e+00
"Vn_D1:n" 6.147226909453019e-07
"Vn_D1:p" -6.147226909453019e-07
"Vn_GND:n" -1.105449067087348e-07
"Vn_GND:p" 1.105449067087348e-07
"Vn_SD:n" -1.633543654005445e-10
"Vn_SD:p" 1.633543654005445e-10
"Vn_VDD:n" -5.040110031643747e-07
"Vn_VDD:p" 5.040110031643747e-07
"Vn_Z:n" -3.371991362057742e-12
"Vn_Z:p" 3.371991362057742e-12
"time" 6.020002698800002e-09
"Vn_D1:v" 0.000000000000000e+00
"Vn_D1:i" -6.172051183041500e-07
"Vn_D1:pwr" -0.000000000000000e+00
"Vn_GND:v" 0.000000000000000e+00
"Vn_GND:i" 1.109743306494531e-07
"Vn_GND:pwr" 0.000000000000000e+00
"Vn_SD:v" 0.000000000000000e+00
"Vn_SD:i" 3.802243986254169e-10
"Vn_SD:pwr" 0.000000000000000e+00
"Vn_VDD:v" 1.200000000000000e+00
"Vn_VDD:i" 5.058376712824227e-07
"Vn_VDD:pwr" 6.070052055389071e-07
"Vn_Z:v" 0.000000000000000e+00
"Vn_Z:i" 1.283641053476774e-11
"Vn_Z:pwr" 0.000000000000000e+00
"n_Z" 1.199999494859715e+00
"n_D1" 1.719295227355574e-06
"n_SD" 1.200000000000000e+00
"Vn_D1:n" 6.172051183041500e-07
"Vn_D1:p" -6.172051183041500e-07
"Vn_GND:n" -1.109743306494531e-07
"Vn_GND:p" 1.109743306494531e-07
"Vn_SD:n" -3.802243986254169e-10
"Vn_SD:p" 3.802243986254169e-10
"Vn_VDD:n" -5.058376712824227e-07
"Vn_VDD:p" 5.058376712824227e-07
"Vn_Z:n" -1.283641053476774e-11
"Vn_Z:p" 1.283641053476774e-11
"time" 6.020006297200004e-09
"Vn_D1:v" 0.000000000000000e+00
"Vn_D1:i" -6.220761722801084e-07
"Vn_D1:pwr" -0.000000000000000e+00
"Vn_GND:v" 0.000000000000000e+00
"Vn_GND:i" 1.118180850928412e-07
"Vn_GND:pwr" 0.000000000000000e+00
"Vn_SD:v" 0.000000000000000e+00
"Vn_SD:i" 8.067698595761536e-10
"Vn_SD:pwr" 0.000000000000000e+00
"Vn_VDD:v" 1.200000000000000e+00
"Vn_VDD:i" 5.093985238339678e-07
"Vn_VDD:pwr" 6.112782286007613e-07
"Vn_Z:v" 0.000000000000000e+00
"Vn_Z:i" 5.273870107143697e-11
"Vn_Z:pwr" 0.000000000000000e+00
"n_Z" 1.199999494888491e+00
"n_D1" 3.684204058619088e-06
"n_SD" 1.200000000000000e+00
"Vn_D1:n" 6.220761722801084e-07
"Vn_D1:p" -6.220761722801084e-07
"Vn_GND:n" -1.118180850928412e-07
"Vn_GND:p" 1.118180850928412e-07
"Vn_SD:n" -8.067698595761536e-10
"Vn_SD:p" 8.067698595761536e-10
"Vn_VDD:n" -5.093985238339678e-07
"Vn_VDD:p" 5.093985238339678e-07
"Vn_Z:n" -5.273870107143697e-11
"Vn_Z:p" 5.273870107143697e-11
"time" 6.020013494000009e-09
"Vn_D1:v" 0.000000000000000e+00
"Vn_D1:i" -6.314573115646686e-07
"Vn_D1:pwr" -0.000000000000000e+00
"Vn_GND:v" 0.000000000000000e+00
"Vn_GND:i" 1.134467648087569e-07
"Vn_GND:pwr" 0.000000000000000e+00
"Vn_SD:v" 0.000000000000000e+00
"Vn_SD:i" 1.631765339726244e-09
"Vn_SD:pwr" 0.000000000000000e+00
"Vn_VDD:v" 1.200000000000000e+00
"Vn_VDD:i" 5.161734121187824e-07
"Vn_VDD:pwr" 6.194080945425389e-07
"Vn_Z:v" 0.000000000000000e+00
"Vn_Z:i" 2.053140219426268e-10
"Vn_Z:pwr" 0.000000000000000e+00
"n_Z" 1.199999495114974e+00
"n_D1" 7.614021721146115e-06
"n_SD" 1.200000000000000e+00
"Vn_D1:n" 6.314573115646686e-07
"Vn_D1:p" -6.314573115646686e-07
"Vn_GND:n" -1.134467648087569e-07
"Vn_GND:p" 1.134467648087569e-07
"Vn_SD:n" -1.631765339726244e-09
"Vn_SD:p" 1.631765339726244e-09
"Vn_VDD:n" -5.161734121187824e-07
"Vn_VDD:p" 5.161734121187824e-07
"Vn_Z:n" -2.053140219426268e-10
"Vn_Z:p" 2.053140219426268e-10
"time" 6.020027887600018e-09
"Vn_D1:v" 0.000000000000000e+00
"Vn_D1:i" -6.488790558788296e-07
"Vn_D1:pwr" -0.000000000000000e+00
"Vn_GND:v" 0.000000000000000e+00
"Vn_GND:i" 1.164810703497359e-07
"Vn_GND:pwr" 0.000000000000000e+00
"Vn_SD:v" 0.000000000000000e+00
"Vn_SD:i" 3.174822986279458e-09
"Vn_SD:pwr" 0.000000000000000e+00
"Vn_VDD:v" 1.200000000000000e+00
"Vn_VDD:i" 5.284936677635886e-07
"Vn_VDD:pwr" 6.341924013163062e-07
"Vn_Z:v" 0.000000000000000e+00
"Vn_Z:i" 7.294402319829284e-10
"Vn_Z:pwr" 0.000000000000000e+00
"n_Z" 1.199999496755763e+00
"n_D1" 1.547365704620017e-05
"n_SD" 1.200000000000000e+00
"Vn_D1:n" 6.488790558788296e-07
"Vn_D1:p" -6.488790558788296e-07
"Vn_GND:n" -1.164810703497359e-07
"Vn_GND:p" 1.164810703497359e-07
"Vn_SD:n" -3.174822986279458e-09
"Vn_SD:p" 3.174822986279458e-09
"Vn_VDD:n" -5.284936677635886e-07
"Vn_VDD:p" 5.284936677635886e-07
"Vn_Z:n" -7.294402319829284e-10
"Vn_Z:p" 7.294402319829284e-10
"time" 6.020056674800035e-09
"Vn_D1:v" 0.000000000000000e+00
"Vn_D1:i" -6.668232158557519e-07
"Vn_D1:pwr" -0.000000000000000e+00
"Vn_GND:v" 0.000000000000000e+00
"Vn_GND:i" 1.218005765081056e-07
"Vn_GND:pwr" 0.000000000000000e+00
"Vn_SD:v" 0.000000000000000e+00
"Vn_SD:i" 5.882916570229812e-09
"Vn_SD:pwr" 0.000000000000000e+00
"Vn_VDD:v" 1.200000000000000e+00
"Vn_VDD:i" 5.368569984324729e-07
"Vn_VDD:pwr" 6.442283981189674e-07
"Vn_Z:v" 0.000000000000000e+00
"Vn_Z:i" 2.282668973689367e-09
"Vn_Z:pwr" 0.000000000000000e+00
"n_Z" 1.199999507330177e+00
"n_D1" 3.119292769630828e-05
"n_SD" 1.200000000000000e+00
"Vn_D1:n" 6.668232158557519e-07
"Vn_D1:p" -6.668232158557519e-07
"Vn_GND:n" -1.218005765081056e-07
"Vn_GND:p" 1.218005765081056e-07
"Vn_SD:n" -5.882916570229812e-09
"Vn_SD:p" 5.882916570229812e-09
"Vn_VDD:n" -5.368569984324729e-07
"Vn_VDD:p" 5.368569984324729e-07
"Vn_Z:n" -2.282668973689367e-09
"Vn_Z:p" 2.282668973689367e-09
"time" 6.020114249200071e-09
"Vn_D1:v" 0.000000000000000e+00
"Vn_D1:i" -7.160307016293006e-07
"Vn_D1:pwr" -0.000000000000000e+00
"Vn_GND:v" 0.000000000000000e+00
"Vn_GND:i" 1.299657434632961e-07
"Vn_GND:pwr" 0.000000000000000e+00
"Vn_SD:v" 0.000000000000000e+00
"Vn_SD:i" 1.009882927161359e-08
"Vn_SD:pwr" 0.000000000000000e+00
"Vn_VDD:v" 1.200000000000000e+00
"Vn_VDD:i" 5.700062098907992e-07
"Vn_VDD:pwr" 6.840074518689590e-07
"Vn_Z:v" 0.000000000000000e+00
"Vn_Z:i" 5.959864502020255e-09
"Vn_Z:pwr" 0.000000000000000e+00
"n_Z" 1.199999565203216e+00
"n_D1" 6.263146899652450e-05
"n_SD" 1.200000000000000e+00
"Vn_D1:n" 7.160307016293006e-07
"Vn_D1:p" -7.160307016293006e-07
"Vn_GND:n" -1.299657434632961e-07
"Vn_GND:p" 1.299657434632961e-07
"Vn_SD:n" -1.009882927161359e-08
"Vn_SD:p" 1.009882927161359e-08
"Vn_VDD:n" -5.700062098907992e-07
"Vn_VDD:p" 5.700062098907992e-07
"Vn_Z:n" -5.959864502020255e-09
"Vn_Z:p" 5.959864502020255e-09
"time" 6.020229398000143e-09
"Vn_D1:v" 0.000000000000000e+00
"Vn_D1:i" -7.609120112654690e-07
"Vn_D1:pwr" -0.000000000000000e+00
"Vn_GND:v" 0.000000000000000e+00
"Vn_GND:i" 1.399235670732591e-07
"Vn_GND:pwr" 0.000000000000000e+00
"Vn_SD:v" 0.000000000000000e+00
"Vn_SD:i" 1.534648343776475e-08
"Vn_SD:pwr" 0.000000000000000e+00