HEADER
"PSFversion" "1.00"
"simulator" "spectre"
"version" "10.1.1.164.isr11"
"date" "3:01:57 PM, Fri Oct 17, 2014"
"design" "* Spectre Timing Acquisition"
"analysis type" "tran"
"analysis name" "transient1-024_transient1"
"analysis description" "Transient Analysis `transient1-024_transient1': time = (0 s -> 39 ns)"
"xVecSorted" "ascending"
"tolerance.relative" 0.00100000
"start" 0.00000
"outputstart" 0.00000
"stop" 3.90000e-08
"step" 3.90000e-11
"maxstep" 7.80000e-10
"ic" "all"
"useprevic" "no"
"skipdc" "no"
"reltol" 0.00100000
"abstol(V)" 1.00000e-06
"abstol(I)" 1.00000e-12
"temp" 25.0000
"tnom" 27.0000
"tempeffects" "all"
"errpreset" "moderate"
"method" "traponly"
"lteratio" 3.50000
"relref" "sigglobal"
"cmin" 0.00000
"gmin" 1.00000e-12
TYPE
"sweep" FLOAT DOUBLE PROP(
"key" "sweep"
)
"Tau" FLOAT DOUBLE PROP(
"units" "N*m"
"key" "node"
"tolerance" 1.00000e-06
)
"Alpha" FLOAT DOUBLE PROP(
"units" "rads/s^2"
"key" "node"
"tolerance" 1.00000e-06
)
"Omega" FLOAT DOUBLE PROP(
"units" "rads/s"
"key" "node"
"tolerance" 1.00000e-06
)
"Theta" FLOAT DOUBLE PROP(
"units" "rads"
"key" "node"
"tolerance" 1.00000e-06
)
"F" FLOAT DOUBLE PROP(
"units" "N"
"key" "node"
"tolerance" 1.00000e-06
)
"Imp" FLOAT DOUBLE PROP(
"units" "m/s^3"
"key" "node"
"tolerance" 1.00000e-06
)
"Acc" FLOAT DOUBLE PROP(
"units" "m/s^2"
"key" "node"
"tolerance" 1.00000e-06
)
"Vel" FLOAT DOUBLE PROP(
"units" "m/s"
"key" "node"
"tolerance" 1.00000e-06
)
"Pos" FLOAT DOUBLE PROP(
"units" "m"
"key" "node"
"tolerance" 1.00000e-06
)
"Phi" FLOAT DOUBLE PROP(
"units" "Wb"
"key" "node"
"tolerance" 1.00000e-09
)
"Q" FLOAT DOUBLE PROP(
"units" "coul"
"key" "node"
"tolerance" 1.00000e-14
)
"V" FLOAT DOUBLE PROP(
"units" "V"
"key" "node"
"tolerance" 1.00000e-06
)
"I" FLOAT DOUBLE PROP(
"units" "A"
"key" "branch"
"tolerance" 1.00000e-12
)
"MMF" FLOAT DOUBLE PROP(
"units" "A*turn"
"key" "node"
"tolerance" 1.00000e-12
)
"Wb" FLOAT DOUBLE PROP(
"units" "Wb"
"key" "node"
"tolerance" 1.00000e-09
)
"Temp" FLOAT DOUBLE PROP(
"units" "C"
"key" "node"
"tolerance" 0.000100000
)
"Pwr" FLOAT DOUBLE PROP(
"units" "W"
"key" "node"
"tolerance" 1.00000e-09
)
"U" FLOAT DOUBLE PROP(
"units" ""
"key" "node"
"tolerance" 1.00000e-06
)
"V/Sec" FLOAT DOUBLE PROP(
"units" "V/s"
"key" "node"
"tolerance" 0.000100000
)
"I/Sec" FLOAT DOUBLE PROP(
"units" "A/s"
"key" "node"
"tolerance" 1.00000e-06
)
"1/Sec" FLOAT DOUBLE PROP(
"units" "1/s"
"key" "node"
"tolerance" 0.000100000
)
"HOD" FLOAT DOUBLE PROP(
"units" ""
"key" "node"
"tolerance" 0.0100000
)
"A" FLOAT DOUBLE PROP(
"key" "inst"
)
"W" FLOAT DOUBLE PROP(
"key" "inst"
)
SWEEP
"time" "sweep" PROP(
"sweep_direction" 0
"units" "s"
"plot" 0
"grid" 1
)
TRACE
"Vn_D1:v" "V" PROP(
"units" "V"
)
"Vn_D1:i" "A" PROP(
"units" "A"
)
"Vn_D1:pwr" "W" PROP(
"units" "W"
)
"Vn_GND:v" "V" PROP(
"units" "V"
)
"Vn_GND:i" "A" PROP(
"units" "A"
)
"Vn_GND:pwr" "W" PROP(
"units" "W"
)
"Vn_SD:v" "V" PROP(
"units" "V"
)
"Vn_SD:i" "A" PROP(
"units" "A"
)
"Vn_SD:pwr" "W" PROP(
"units" "W"
)
"Vn_VDD:v" "V" PROP(
"units" "V"
)
"Vn_VDD:i" "A" PROP(
"units" "A"
)
"Vn_VDD:pwr" "W" PROP(
"units" "W"
)
"Vn_Z:v" "V" PROP(
"units" "V"
)
"Vn_Z:i" "A" PROP(
"units" "A"
)
"Vn_Z:pwr" "W" PROP(
"units" "W"
)
"n_Z" "V"
"n_D1" "V"
"n_SD" "V"
"Vn_D1:n" "I"
"Vn_D1:p" "I"
"Vn_GND:n" "I"
"Vn_GND:p" "I"
"Vn_SD:n" "I"
"Vn_SD:p" "I"
"Vn_VDD:n" "I"
"Vn_VDD:p" "I"
"Vn_Z:n" "I"
"Vn_Z:p" "I"
VALUE
"time" 0.000000000000000e+00
"Vn_D1:v" 0.000000000000000e+00
"Vn_D1:i" 7.517119452868265e-14
"Vn_D1:pwr" 0.000000000000000e+00
"Vn_GND:v" 0.000000000000000e+00
"Vn_GND:i" 2.548493107913159e-10
"Vn_GND:pwr" 0.000000000000000e+00
"Vn_SD:v" 0.000000000000000e+00
"Vn_SD:i" -5.105704018311278e-13
"Vn_SD:pwr" -0.000000000000000e+00
"Vn_VDD:v" 1.200000000000000e+00
"Vn_VDD:i" -2.544688430803598e-10
"Vn_VDD:pwr" -3.053626116964317e-10
"Vn_Z:v" 0.000000000000000e+00
"Vn_Z:i" 0.000000000000000e+00
"Vn_Z:pwr" 0.000000000000000e+00
"n_Z" 1.199999494927445e+00
"n_D1" 0.000000000000000e+00
"n_SD" 1.200000000000000e+00
"Vn_D1:n" -7.517119452868265e-14
"Vn_D1:p" 7.517119452868265e-14
"Vn_GND:n" -2.548493107913159e-10
"Vn_GND:p" 2.548493107913159e-10
"Vn_SD:n" 5.105704018311278e-13
"Vn_SD:p" -5.105704018311278e-13
"Vn_VDD:n" 2.544688430803598e-10
"Vn_VDD:p" -2.544688430803598e-10
"Vn_Z:n" 0.000000000000000e+00
"Vn_Z:p" 0.000000000000000e+00
"time" 3.900000000000000e-11
"Vn_D1:v" 0.000000000000000e+00
"Vn_D1:i" 7.484300208912893e-14
"Vn_D1:pwr" 0.000000000000000e+00
"Vn_GND:v" 0.000000000000000e+00
"Vn_GND:i" 2.548642412379405e-10
"Vn_GND:pwr" 0.000000000000000e+00
"Vn_SD:v" 0.000000000000000e+00
"Vn_SD:i" -5.109881710835457e-13
"Vn_SD:pwr" -0.000000000000000e+00
"Vn_VDD:v" 1.200000000000000e+00
"Vn_VDD:i" -2.544791788536961e-10
"Vn_VDD:pwr" -3.053750146244353e-10
"Vn_Z:v" 0.000000000000000e+00
"Vn_Z:i" -3.848710910848656e-15
"Vn_Z:pwr" -0.000000000000000e+00
"n_Z" 1.199999494887945e+00
"n_D1" 0.000000000000000e+00
"n_SD" 1.200000000000000e+00
"Vn_D1:n" -7.484300208912893e-14
"Vn_D1:p" 7.484300208912893e-14
"Vn_GND:n" -2.548642412379405e-10
"Vn_GND:p" 2.548642412379405e-10
"Vn_SD:n" 5.109881710835457e-13
"Vn_SD:p" -5.109881710835457e-13
"Vn_VDD:n" 2.544791788536961e-10
"Vn_VDD:p" -2.544791788536961e-10
"Vn_Z:n" 3.848710910848656e-15
"Vn_Z:p" -3.848710910848656e-15
"time" 1.170000000000000e-10
"Vn_D1:v" 0.000000000000000e+00
"Vn_D1:i" 7.504931310873496e-14
"Vn_D1:pwr" 0.000000000000000e+00
"Vn_GND:v" 0.000000000000000e+00
"Vn_GND:i" 2.548657021424307e-10
"Vn_GND:pwr" 0.000000000000000e+00
"Vn_SD:v" 0.000000000000000e+00
"Vn_SD:i" -5.107071296269051e-13
"Vn_SD:pwr" -0.000000000000000e+00
"Vn_VDD:v" 1.200000000000000e+00
"Vn_VDD:i" -2.544838223602101e-10
"Vn_VDD:pwr" -3.053805868322522e-10
"Vn_Z:v" 0.000000000000000e+00
"Vn_Z:i" -1.153454885026973e-15
"Vn_Z:pwr" -0.000000000000000e+00
"n_Z" 1.199999494864268e+00
"n_D1" 0.000000000000000e+00
"n_SD" 1.200000000000000e+00
"Vn_D1:n" -7.504931310873496e-14
"Vn_D1:p" 7.504931310873496e-14
"Vn_GND:n" -2.548657021424307e-10
"Vn_GND:p" 2.548657021424307e-10
"Vn_SD:n" 5.107071296269051e-13
"Vn_SD:p" -5.107071296269051e-13
"Vn_VDD:n" 2.544838223602101e-10
"Vn_VDD:p" -2.544838223602101e-10
"Vn_Z:n" 1.153454885026973e-15
"Vn_Z:p" -1.153454885026973e-15
"time" 2.730000000000000e-10
"Vn_D1:v" 0.000000000000000e+00
"Vn_D1:i" 7.521724748250406e-14
"Vn_D1:pwr" 0.000000000000000e+00
"Vn_GND:v" 0.000000000000000e+00
"Vn_GND:i" 2.548665524461182e-10
"Vn_GND:pwr" 0.000000000000000e+00
"Vn_SD:v" 0.000000000000000e+00
"Vn_SD:i" -5.105180355789613e-13
"Vn_SD:pwr" -0.000000000000000e+00
"Vn_VDD:v" 1.200000000000000e+00
"Vn_VDD:i" -2.544866380255199e-10
"Vn_VDD:pwr" -3.053839656306239e-10
"Vn_Z:v" 0.000000000000000e+00
"Vn_Z:i" 4.518556887843584e-16
"Vn_Z:pwr" 0.000000000000000e+00
"n_Z" 1.199999494849867e+00
"n_D1" 0.000000000000000e+00
"n_SD" 1.200000000000000e+00
"Vn_D1:n" -7.521724748250406e-14
"Vn_D1:p" 7.521724748250406e-14
"Vn_GND:n" -2.548665524461182e-10
"Vn_GND:p" 2.548665524461182e-10
"Vn_SD:n" 5.105180355789613e-13
"Vn_SD:p" -5.105180355789613e-13
"Vn_VDD:n" 2.544866380255199e-10
"Vn_VDD:p" -2.544866380255199e-10
"Vn_Z:n" -4.518556887843584e-16
"Vn_Z:p" 4.518556887843584e-16
"time" 5.850000000000002e-10
"Vn_D1:v" 0.000000000000000e+00
"Vn_D1:i" 7.514277412571959e-14
"Vn_D1:pwr" 0.000000000000000e+00
"Vn_GND:v" 0.000000000000000e+00
"Vn_GND:i" 2.548661385234507e-10
"Vn_GND:pwr" 0.000000000000000e+00
"Vn_SD:v" 0.000000000000000e+00
"Vn_SD:i" -5.106031713507477e-13
"Vn_SD:pwr" -0.000000000000000e+00
"Vn_VDD:v" 1.200000000000000e+00
"Vn_VDD:i" -2.544853206495535e-10
"Vn_VDD:pwr" -3.053823847794641e-10
"Vn_Z:v" 0.000000000000000e+00
"Vn_Z:i" -2.883647286360032e-16
"Vn_Z:pwr" -0.000000000000000e+00
"n_Z" 1.199999494856579e+00
"n_D1" 0.000000000000000e+00
"n_SD" 1.200000000000000e+00
"Vn_D1:n" -7.514277412571959e-14
"Vn_D1:p" 7.514277412571959e-14
"Vn_GND:n" -2.548661385234507e-10
"Vn_GND:p" 2.548661385234507e-10
"Vn_SD:n" 5.106031713507477e-13
"Vn_SD:p" -5.106031713507477e-13
"Vn_VDD:n" 2.544853206495535e-10
"Vn_VDD:p" -2.544853206495535e-10
"Vn_Z:n" 2.883647286360032e-16
"Vn_Z:p" -2.883647286360032e-16
"time" 1.209000000000000e-09
"Vn_D1:v" 0.000000000000000e+00
"Vn_D1:i" 7.519368567318594e-14
"Vn_D1:pwr" 0.000000000000000e+00
"Vn_GND:v" 0.000000000000000e+00
"Vn_GND:i" 2.548663803025151e-10
"Vn_GND:pwr" 0.000000000000000e+00
"Vn_SD:v" 0.000000000000000e+00
"Vn_SD:i" -5.105441796257202e-13
"Vn_SD:pwr" -0.000000000000000e+00
"Vn_VDD:v" 1.200000000000000e+00
"Vn_VDD:i" -2.544861976918039e-10
"Vn_VDD:pwr" -3.053834372301646e-10
"Vn_Z:v" 0.000000000000000e+00
"Vn_Z:i" 2.335063023071933e-16
"Vn_Z:pwr" 0.000000000000000e+00
"n_Z" 1.199999494852075e+00
"n_D1" 0.000000000000000e+00
"n_SD" 1.200000000000000e+00
"Vn_D1:n" -7.519368567318594e-14
"Vn_D1:p" 7.519368567318594e-14
"Vn_GND:n" -2.548663803025151e-10
"Vn_GND:p" 2.548663803025151e-10
"Vn_SD:n" 5.105441796257202e-13
"Vn_SD:p" -5.105441796257202e-13
"Vn_VDD:n" 2.544861976918039e-10
"Vn_VDD:p" -2.544861976918039e-10
"Vn_Z:n" -2.335063023071933e-16
"Vn_Z:p" 2.335063023071933e-16
"time" 1.989000000000000e-09
"Vn_D1:v" 0.000000000000000e+00
"Vn_D1:i" 7.515301879980010e-14
"Vn_D1:pwr" 0.000000000000000e+00
"Vn_GND:v" 0.000000000000000e+00
"Vn_GND:i" 2.548661070905481e-10
"Vn_GND:pwr" 0.000000000000000e+00
"Vn_SD:v" 0.000000000000000e+00
"Vn_SD:i" -5.105918327796964e-13
"Vn_SD:pwr" -0.000000000000000e+00
"Vn_VDD:v" 1.200000000000000e+00
"Vn_VDD:i" -2.544853996231332e-10
"Vn_VDD:pwr" -3.053824795477598e-10
"Vn_Z:v" 0.000000000000000e+00
"Vn_Z:i" -1.942648317133042e-16
"Vn_Z:pwr" -0.000000000000000e+00
"n_Z" 1.199999494856102e+00
"n_D1" 0.000000000000000e+00
"n_SD" 1.200000000000000e+00
"Vn_D1:n" -7.515301879980010e-14
"Vn_D1:p" 7.515301879980010e-14
"Vn_GND:n" -2.548661070905481e-10
"Vn_GND:p" 2.548661070905481e-10
"Vn_SD:n" 5.105918327796964e-13
"Vn_SD:p" -5.105918327796964e-13
"Vn_VDD:n" 2.544853996231332e-10
"Vn_VDD:p" -2.544853996231332e-10
"Vn_Z:n" 1.942648317133042e-16
"Vn_Z:p" -1.942648317133042e-16
"time" 2.769000000000001e-09
"Vn_D1:v" 0.000000000000000e+00
"Vn_D1:i" 7.518616757057738e-14
"Vn_D1:pwr" 0.000000000000000e+00
"Vn_GND:v" 0.000000000000000e+00
"Vn_GND:i" 2.548662514145618e-10
"Vn_GND:pwr" 0.000000000000000e+00
"Vn_SD:v" 0.000000000000000e+00
"Vn_SD:i" -5.105524817806319e-13
"Vn_SD:pwr" -0.000000000000000e+00
"Vn_VDD:v" 1.200000000000000e+00
"Vn_VDD:i" -2.544859908728694e-10
"Vn_VDD:pwr" -3.053831890474433e-10
"Vn_Z:v" 0.000000000000000e+00
"Vn_Z:i" 1.646799282152627e-16
"Vn_Z:pwr" 0.000000000000000e+00
"n_Z" 1.199999494853066e+00
"n_D1" 0.000000000000000e+00
"n_SD" 1.200000000000000e+00
"Vn_D1:n" -7.518616757057738e-14
"Vn_D1:p" 7.518616757057738e-14
"Vn_GND:n" -2.548662514145618e-10
"Vn_GND:p" 2.548662514145618e-10
"Vn_SD:n" 5.105524817806319e-13
"Vn_SD:p" -5.105524817806319e-13
"Vn_VDD:n" 2.544859908728694e-10
"Vn_VDD:p" -2.544859908728694e-10
"Vn_Z:n" -1.646799282152627e-16
"Vn_Z:p" 1.646799282152627e-16
"time" 3.000000000000000e-09
"Vn_D1:v" 0.000000000000000e+00
"Vn_D1:i" 7.516461002172430e-14
"Vn_D1:pwr" 0.000000000000000e+00
"Vn_GND:v" 0.000000000000000e+00
"Vn_GND:i" 2.548661057265215e-10
"Vn_GND:pwr" 0.000000000000000e+00
"Vn_SD:v" 0.000000000000000e+00
"Vn_SD:i" -5.105790755310810e-13
"Vn_SD:pwr" -0.000000000000000e+00
"Vn_VDD:v" 1.200000000000000e+00
"Vn_VDD:i" -2.544855256973832e-10
"Vn_VDD:pwr" -3.053826308368599e-10
"Vn_Z:v" 0.000000000000000e+00
"Vn_Z:i" -8.744580931507372e-17
"Vn_Z:pwr" -0.000000000000000e+00
"n_Z" 1.199999494855413e+00
"n_D1" 0.000000000000000e+00
"n_SD" 1.200000000000000e+00
"Vn_D1:n" -7.516461002172430e-14
"Vn_D1:p" 7.516461002172430e-14
"Vn_GND:n" -2.548661057265215e-10
"Vn_GND:p" 2.548661057265215e-10
"Vn_SD:n" 5.105790755310810e-13
"Vn_SD:p" -5.105790755310810e-13
"Vn_VDD:n" 2.544855256973832e-10
"Vn_VDD:p" -2.544855256973832e-10
"Vn_Z:n" 8.744580931507372e-17
"Vn_Z:p" -8.744580931507372e-17
"time" 3.010000000000000e-09
"Vn_D1:v" 0.000000000000000e+00
"Vn_D1:i" 7.516401487175095e-14
"Vn_D1:pwr" 0.000000000000000e+00
"Vn_GND:v" 0.000000000000000e+00
"Vn_GND:i" 2.548661140903419e-10
"Vn_GND:pwr" 0.000000000000000e+00
"Vn_SD:v" 0.000000000000000e+00
"Vn_SD:i" -5.105780795555099e-13
"Vn_SD:pwr" -0.000000000000000e+00
"Vn_VDD:v" 1.200000000000000e+00
"Vn_VDD:i" -2.544855629905602e-10
"Vn_VDD:pwr" -3.053826755886723e-10
"Vn_Z:v" 0.000000000000000e+00
"Vn_Z:i" -6.848501382320441e-17
"Vn_Z:pwr" -0.000000000000000e+00
"n_Z" 1.199999494855233e+00
"n_D1" 0.000000000000000e+00
"n_SD" 1.200000000000000e+00
"Vn_D1:n" -7.516401487175095e-14
"Vn_D1:p" 7.516401487175095e-14
"Vn_GND:n" -2.548661140903419e-10
"Vn_GND:p" 2.548661140903419e-10
"Vn_SD:n" 5.105780795555099e-13
"Vn_SD:p" -5.105780795555099e-13
"Vn_VDD:n" 2.544855629905602e-10
"Vn_VDD:p" -2.544855629905602e-10
"Vn_Z:n" 6.848501382320441e-17
"Vn_Z:p" -6.848501382320441e-17
"time" 3.030000000000000e-09
"Vn_D1:v" 0.000000000000000e+00
"Vn_D1:i" 7.516657128441306e-14
"Vn_D1:pwr" 0.000000000000000e+00
"Vn_GND:v" 0.000000000000000e+00
"Vn_GND:i" 2.548661262390891e-10
"Vn_GND:pwr" 0.000000000000000e+00
"Vn_SD:v" 0.000000000000000e+00
"Vn_SD:i" -5.105754050045891e-13
"Vn_SD:pwr" -0.000000000000000e+00
"Vn_VDD:v" 1.200000000000000e+00
"Vn_VDD:i" -2.544856061471931e-10
"Vn_VDD:pwr" -3.053827273766318e-10
"Vn_Z:v" 0.000000000000000e+00
"Vn_Z:i" -4.278206323593909e-17
"Vn_Z:pwr" -0.000000000000000e+00
"n_Z" 1.199999494855007e+00
"n_D1" 0.000000000000000e+00
"n_SD" 1.200000000000000e+00
"Vn_D1:n" -7.516657128441306e-14
"Vn_D1:p" 7.516657128441306e-14
"Vn_GND:n" -2.548661262390891e-10
"Vn_GND:p" 2.548661262390891e-10
"Vn_SD:n" 5.105754050045891e-13
"Vn_SD:p" -5.105754050045891e-13
"Vn_VDD:n" 2.544856061471931e-10
"Vn_VDD:p" -2.544856061471931e-10
"Vn_Z:n" 4.278206323593909e-17
"Vn_Z:p" -4.278206323593909e-17
"time" 3.070000000000001e-09
"Vn_D1:v" 0.000000000000000e+00
"Vn_D1:i" 7.517014970688677e-14
"Vn_D1:pwr" 0.000000000000000e+00
"Vn_GND:v" 0.000000000000000e+00
"Vn_GND:i" 2.548661415112664e-10
"Vn_GND:pwr" 0.000000000000000e+00
"Vn_SD:v" 0.000000000000000e+00
"Vn_SD:i" -5.105717237053458e-13
"Vn_SD:pwr" -0.000000000000000e+00
"Vn_VDD:v" 1.200000000000000e+00
"Vn_VDD:i" -2.544856603473036e-10
"Vn_VDD:pwr" -3.053827924167643e-10
"Vn_Z:v" 0.000000000000000e+00
"Vn_Z:i" -1.105493810361343e-17
"Vn_Z:pwr" -0.000000000000000e+00
"n_Z" 1.199999494854724e+00
"n_D1" 0.000000000000000e+00
"n_SD" 1.200000000000000e+00
"Vn_D1:n" -7.517014970688677e-14
"Vn_D1:p" 7.517014970688677e-14
"Vn_GND:n" -2.548661415112664e-10
"Vn_GND:p" 2.548661415112664e-10
"Vn_SD:n" 5.105717237053458e-13
"Vn_SD:p" -5.105717237053458e-13
"Vn_VDD:n" 2.544856603473036e-10
"Vn_VDD:p" -2.544856603473036e-10
"Vn_Z:n" 1.105493810361343e-17
"Vn_Z:p" -1.105493810361343e-17
"time" 3.150000000000003e-09
"Vn_D1:v" 0.000000000000000e+00
"Vn_D1:i" 7.517124411841533e-14
"Vn_D1:pwr" 0.000000000000000e+00
"Vn_GND:v" 0.000000000000000e+00
"Vn_GND:i" 2.548661426550249e-10
"Vn_GND:pwr" 0.000000000000000e+00
"Vn_SD:v" 0.000000000000000e+00
"Vn_SD:i" -5.105701580742581e-13
"Vn_SD:pwr" -0.000000000000000e+00
"Vn_VDD:v" 1.200000000000000e+00
"Vn_VDD:i" -2.544856784003312e-10
"Vn_VDD:pwr" -3.053828140803974e-10
"Vn_Z:v" 0.000000000000000e+00
"Vn_Z:i" 2.308241699148825e-18
"Vn_Z:pwr" 0.000000000000000e+00
"n_Z" 1.199999494854632e+00
"n_D1" 0.000000000000000e+00
"n_SD" 1.200000000000000e+00
"Vn_D1:n" -7.517124411841533e-14
"Vn_D1:p" 7.517124411841533e-14
"Vn_GND:n" -2.548661426550249e-10
"Vn_GND:p" 2.548661426550249e-10
"Vn_SD:n" 5.105701580742581e-13
"Vn_SD:p" -5.105701580742581e-13
"Vn_VDD:n" 2.544856784003312e-10
"Vn_VDD:p" -2.544856784003312e-10
"Vn_Z:n" -2.308241699148825e-18
"Vn_Z:p" 2.308241699148825e-18
"time" 3.310000000000005e-09
"Vn_D1:v" 0.000000000000000e+00
"Vn_D1:i" 7.517134820314893e-14
"Vn_D1:pwr" 0.000000000000000e+00
"Vn_GND:v" 0.000000000000000e+00
"Vn_GND:i" 2.548661333719866e-10
"Vn_GND:pwr" 0.000000000000000e+00
"Vn_SD:v" 0.000000000000000e+00
"Vn_SD:i" -5.105703790230773e-13
"Vn_SD:pwr" -0.000000000000000e+00
"Vn_VDD:v" 1.200000000000000e+00
"Vn_VDD:i" -2.544856709260649e-10
"Vn_VDD:pwr" -3.053828051112779e-10
"Vn_Z:v" 0.000000000000000e+00
"Vn_Z:i" -2.137683913868591e-19
"Vn_Z:pwr" -0.000000000000000e+00
"n_Z" 1.199999494854676e+00
"n_D1" 0.000000000000000e+00
"n_SD" 1.200000000000000e+00
"Vn_D1:n" -7.517134820314893e-14
"Vn_D1:p" 7.517134820314893e-14
"Vn_GND:n" -2.548661333719866e-10
"Vn_GND:p" 2.548661333719866e-10
"Vn_SD:n" 5.105703790230773e-13
"Vn_SD:p" -5.105703790230773e-13
"Vn_VDD:n" 2.544856709260649e-10
"Vn_VDD:p" -2.544856709260649e-10
"Vn_Z:n" 2.137683913868591e-19
"Vn_Z:p" -2.137683913868591e-19
"time" 3.630000000000011e-09
"Vn_D1:v" 0.000000000000000e+00
"Vn_D1:i" 7.517126877264364e-14
"Vn_D1:pwr" 0.000000000000000e+00
"Vn_GND:v" 0.000000000000000e+00
"Vn_GND:i" 2.548661147082168e-10
"Vn_GND:pwr" 0.000000000000000e+00
"Vn_SD:v" 0.000000000000000e+00
"Vn_SD:i" -5.105701567907358e-13
"Vn_SD:pwr" -0.000000000000000e+00
"Vn_VDD:v" 1.200000000000000e+00
"Vn_VDD:i" -2.544856459699927e-10
"Vn_VDD:pwr" -3.053827751639912e-10
"Vn_Z:v" 0.000000000000000e+00
"Vn_Z:i" 2.401891902139506e-18
"Vn_Z:pwr" 0.000000000000000e+00
"n_Z" 1.199999494854768e+00
"n_D1" 0.000000000000000e+00
"n_SD" 1.200000000000000e+00
"Vn_D1:n" -7.517126877264364e-14
"Vn_D1:p" 7.517126877264364e-14
"Vn_GND:n" -2.548661147082168e-10
"Vn_GND:p" 2.548661147082168e-10
"Vn_SD:n" 5.105701567907358e-13
"Vn_SD:p" -5.105701567907358e-13
"Vn_VDD:n" 2.544856459699927e-10
"Vn_VDD:p" -2.544856459699927e-10
"Vn_Z:n" -2.401891902139506e-18
"Vn_Z:p" 2.401891902139506e-18
"time" 4.270000000000022e-09
"Vn_D1:v" 0.000000000000000e+00
"Vn_D1:i" 7.517139819710938e-14
"Vn_D1:pwr" 0.000000000000000e+00
"Vn_GND:v" 0.000000000000000e+00
"Vn_GND:i" 2.548660778801475e-10
"Vn_GND:pwr" 0.000000000000000e+00
"Vn_SD:v" 0.000000000000000e+00
"Vn_SD:i" -5.105703129284611e-13
"Vn_SD:pwr" -0.000000000000000e+00
"Vn_VDD:v" 1.200000000000000e+00
"Vn_VDD:i" -2.544856133041133e-10
"Vn_VDD:pwr" -3.053827359649359e-10
"Vn_Z:v" 0.000000000000000e+00
"Vn_Z:i" -5.441237734872384e-19
"Vn_Z:pwr" -0.000000000000000e+00
"n_Z" 1.199999494854924e+00
"n_D1" 0.000000000000000e+00
"n_SD" 1.200000000000000e+00
"Vn_D1:n" -7.517139819710938e-14
"Vn_D1:p" 7.517139819710938e-14
"Vn_GND:n" -2.548660778801475e-10
"Vn_GND:p" 2.548660778801475e-10
"Vn_SD:n" 5.105703129284611e-13
"Vn_SD:p" -5.105703129284611e-13
"Vn_VDD:n" 2.544856133041133e-10
"Vn_VDD:p" -2.544856133041133e-10
"Vn_Z:n" 5.441237734872384e-19
"Vn_Z:p" -5.441237734872384e-19
"time" 5.050000000000022e-09
"Vn_D1:v" 0.000000000000000e+00
"Vn_D1:i" 7.517109443666060e-14
"Vn_D1:pwr" 0.000000000000000e+00
"Vn_GND:v" 0.000000000000000e+00
"Vn_GND:i" 2.548660310349922e-10
"Vn_GND:pwr" 0.000000000000000e+00
"Vn_SD:v" 0.000000000000000e+00
"Vn_SD:i" -5.105703750558237e-13
"Vn_SD:pwr" -0.000000000000000e+00
"Vn_VDD:v" 1.200000000000000e+00
"Vn_VDD:i" -2.544855664055833e-10
"Vn_VDD:pwr" -3.053826796866999e-10
"Vn_Z:v" 0.000000000000000e+00
"Vn_Z:i" 2.354855006043043e-18
"Vn_Z:pwr" 0.000000000000000e+00
"n_Z" 1.199999494855110e+00
"n_D1" 0.000000000000000e+00
"n_SD" 1.200000000000000e+00
"Vn_D1:n" -7.517109443666060e-14
"Vn_D1:p" 7.517109443666060e-14
"Vn_GND:n" -2.548660310349922e-10
"Vn_GND:p" 2.548660310349922e-10
"Vn_SD:n" 5.105703750558237e-13
"Vn_SD:p" -5.105703750558237e-13
"Vn_VDD:n" 2.544855664055833e-10
"Vn_VDD:p" -2.544855664055833e-10
"Vn_Z:n" -2.354855006043043e-18
"Vn_Z:p" 2.354855006043043e-18
"time" 5.830000000000022e-09
"Vn_D1:v" 0.000000000000000e+00
"Vn_D1:i" 7.517150151834446e-14
"Vn_D1:pwr" 0.000000000000000e+00
"Vn_GND:v" 0.000000000000000e+00
"Vn_GND:i" 2.548659881331338e-10
"Vn_GND:pwr" 0.000000000000000e+00
"Vn_SD:v" 0.000000000000000e+00
"Vn_SD:i" -5.105701713070444e-13
"Vn_SD:pwr" -0.000000000000000e+00
"Vn_VDD:v" 1.200000000000000e+00
"Vn_VDD:i" -2.544855227849271e-10
"Vn_VDD:pwr" -3.053826273419126e-10
"Vn_Z:v" 0.000000000000000e+00
"Vn_Z:i" -2.474381153582755e-19
"Vn_Z:pwr" -0.000000000000000e+00
"n_Z" 1.199999494855327e+00
"n_D1" 0.000000000000000e+00
"n_SD" 1.200000000000000e+00
"Vn_D1:n" -7.517150151834446e-14
"Vn_D1:p" 7.517150151834446e-14
"Vn_GND:n" -2.548659881331338e-10
"Vn_GND:p" 2.548659881331338e-10
"Vn_SD:n" 5.105701713070444e-13
"Vn_SD:p" -5.105701713070444e-13
"Vn_VDD:n" 2.544855227849271e-10
"Vn_VDD:p" -2.544855227849271e-10
"Vn_Z:n" 2.474381153582755e-19
"Vn_Z:p" -2.474381153582755e-19
"time" 6.010000000000000e-09
"Vn_D1:v" 0.000000000000000e+00
"Vn_D1:i" 7.517107166074962e-14
"Vn_D1:pwr" 0.000000000000000e+00
"Vn_GND:v" 0.000000000000000e+00
"Vn_GND:i" 2.548659750611649e-10
"Vn_GND:pwr" 0.000000000000000e+00
"Vn_SD:v" 0.000000000000000e+00
"Vn_SD:i" -5.105704588228316e-13
"Vn_SD:pwr" -0.000000000000000e+00
"Vn_VDD:v" 1.200000000000000e+00
"Vn_VDD:i" -2.544855042377519e-10
"Vn_VDD:pwr" -3.053826050853023e-10
"Vn_Z:v" 0.000000000000000e+00
"Vn_Z:i" 1.359819464179443e-18
"Vn_Z:pwr" 0.000000000000000e+00
"n_Z" 1.199999494855353e+00
"n_D1" 0.000000000000000e+00
"n_SD" 1.200000000000000e+00
"Vn_D1:n" -7.517107166074962e-14
"Vn_D1:p" 7.517107166074962e-14
"Vn_GND:n" -2.548659750611649e-10
"Vn_GND:p" 2.548659750611649e-10
"Vn_SD:n" 5.105704588228316e-13
"Vn_SD:p" -5.105704588228316e-13
"Vn_VDD:n" 2.544855042377519e-10
"Vn_VDD:p" -2.544855042377519e-10
"Vn_Z:n" -1.359819464179443e-18
"Vn_Z:p" 1.359819464179443e-18
"time" 6.019999479700000e-09
"Vn_D1:v" 0.000000000000000e+00
"Vn_D1:i" 7.517107974214318e-14
"Vn_D1:pwr" 0.000000000000000e+00
"Vn_GND:v" 0.000000000000000e+00
"Vn_GND:i" 2.548659761126101e-10
"Vn_GND:pwr" 0.000000000000000e+00
"Vn_SD:v" 0.000000000000000e+00
"Vn_SD:i" -5.105702770854456e-13
"Vn_SD:pwr" -0.000000000000000e+00
"Vn_VDD:v" 1.200000000000000e+00
"Vn_VDD:i" -2.544855103549410e-10
"Vn_VDD:pwr" -3.053826124259292e-10
"Vn_Z:v" 0.000000000000000e+00
"Vn_Z:i" 1.918896477469484e-18
"Vn_Z:pwr" 0.000000000000000e+00
"n_Z" 1.199999494855358e+00
"n_D1" 0.000000000000000e+00
"n_SD" 1.200000000000000e+00
"Vn_D1:n" -7.517107974214318e-14
"Vn_D1:p" 7.517107974214318e-14
"Vn_GND:n" -2.548659761126101e-10
"Vn_GND:p" 2.548659761126101e-10
"Vn_SD:n" 5.105702770854456e-13
"Vn_SD:p" -5.105702770854456e-13
"Vn_VDD:n" 2.544855103549410e-10
"Vn_VDD:p" -2.544855103549410e-10
"Vn_Z:n" -1.918896477469484e-18
"Vn_Z:p" 1.918896477469484e-18
"time" 6.020000000000000e-09
"Vn_D1:v" 0.000000000000000e+00
"Vn_D1:i" -5.305157155963622e-07
"Vn_D1:pwr" -0.000000000000000e+00
"Vn_GND:v" 0.000000000000000e+00
"Vn_GND:i" 9.544344844340814e-08
"Vn_GND:pwr" 0.000000000000000e+00
"Vn_SD:v" 0.000000000000000e+00
"Vn_SD:i" 5.429687796668267e-11
"Vn_SD:pwr" 0.000000000000000e+00
"Vn_VDD:v" 1.200000000000000e+00
"Vn_VDD:i" 4.350173509016350e-07
"Vn_VDD:pwr" 5.220208210819620e-07
"Vn_Z:v" 0.000000000000000e+00
"Vn_Z:i" 5.649223598017225e-13
"Vn_Z:pwr" 0.000000000000000e+00
"n_Z" 1.199999494855435e+00
"n_D1" 2.456516759776461e-07
"n_SD" 1.200000000000000e+00
"Vn_D1:n" 5.305157155963622e-07
"Vn_D1:p" -5.305157155963622e-07
"Vn_GND:n" -9.544344844340814e-08
"Vn_GND:p" 9.544344844340814e-08
"Vn_SD:n" -5.429687796668267e-11
"Vn_SD:p" 5.429687796668267e-11
"Vn_VDD:n" -4.350173509016350e-07
"Vn_VDD:p" 4.350173509016350e-07
"Vn_Z:n" -5.649223598017225e-13
"Vn_Z:p" 5.649223598017225e-13
"time" 6.020001040600000e-09
"Vn_D1:v" 0.000000000000000e+00
"Vn_D1:i" -5.317631843377931e-07
"Vn_D1:pwr" -0.000000000000000e+00
"Vn_GND:v" 0.000000000000000e+00
"Vn_GND:i" 9.565916737182329e-08
"Vn_GND:pwr" 0.000000000000000e+00
"Vn_SD:v" 0.000000000000000e+00
"Vn_SD:i" 1.632137782636678e-10
"Vn_SD:pwr" 0.000000000000000e+00
"Vn_VDD:v" 1.200000000000000e+00
"Vn_VDD:i" 4.359368688554580e-07
"Vn_VDD:pwr" 5.231242426265496e-07
"Vn_Z:v" 0.000000000000000e+00
"Vn_Z:i" 3.879999867605824e-12
"Vn_Z:pwr" 0.000000000000000e+00
"n_Z" 1.199999494856497e+00
"n_D1" 7.369550279329381e-07
"n_SD" 1.200000000000000e+00
"Vn_D1:n" 5.317631843377931e-07
"Vn_D1:p" -5.317631843377931e-07
"Vn_GND:n" -9.565916737182329e-08
"Vn_GND:p" 9.565916737182329e-08
"Vn_SD:n" -1.632137782636678e-10
"Vn_SD:p" 1.632137782636678e-10
"Vn_VDD:n" -4.359368688554580e-07
"Vn_VDD:p" 4.359368688554580e-07
"Vn_Z:n" -3.879999867605824e-12
"Vn_Z:p" 3.879999867605824e-12
"time" 6.020003121800001e-09
"Vn_D1:v" 0.000000000000000e+00
"Vn_D1:i" -5.342398282627576e-07
"Vn_D1:pwr" -0.000000000000000e+00
"Vn_GND:v" 0.000000000000000e+00
"Vn_GND:i" 9.608767335415918e-08
"Vn_GND:pwr" 0.000000000000000e+00
"Vn_SD:v" 0.000000000000000e+00
"Vn_SD:i" 3.796470152238228e-10
"Vn_SD:pwr" 0.000000000000000e+00
"Vn_VDD:v" 1.200000000000000e+00
"Vn_VDD:i" 4.377577163142443e-07
"Vn_VDD:pwr" 5.253092595770932e-07
"Vn_Z:v" 0.000000000000000e+00
"Vn_Z:i" 1.473591719182631e-11
"Vn_Z:pwr" 0.000000000000000e+00
"n_Z" 1.199999494861595e+00
"n_D1" 1.719561731843522e-06
"n_SD" 1.200000000000000e+00
"Vn_D1:n" 5.342398282627576e-07
"Vn_D1:p" -5.342398282627576e-07
"Vn_GND:n" -9.608767335415918e-08
"Vn_GND:p" 9.608767335415918e-08
"Vn_SD:n" -3.796470152238228e-10
"Vn_SD:p" 3.796470152238228e-10
"Vn_VDD:n" -4.377577163142443e-07
"Vn_VDD:p" 4.377577163142443e-07
"Vn_Z:n" -1.473591719182631e-11
"Vn_Z:p" 1.473591719182631e-11
"time" 6.020007284200001e-09
"Vn_D1:v" 0.000000000000000e+00
"Vn_D1:i" -5.390851911470154e-07
"Vn_D1:pwr" -0.000000000000000e+00
"Vn_GND:v" 0.000000000000000e+00
"Vn_GND:i" 9.692730476560315e-08
"Vn_GND:pwr" 0.000000000000000e+00
"Vn_SD:v" 0.000000000000000e+00
"Vn_SD:i" 8.042275759648664e-10
"Vn_SD:pwr" 0.000000000000000e+00
"Vn_VDD:v" 1.200000000000000e+00
"Vn_VDD:i" 4.412934424229884e-07
"Vn_VDD:pwr" 5.295521309075861e-07
"Vn_Z:v" 0.000000000000000e+00
"Vn_Z:i" 6.016250667623614e-11
"Vn_Z:pwr" 0.000000000000000e+00
"n_Z" 1.199999494902616e+00
"n_D1" 3.684775139664691e-06
"n_SD" 1.200000000000000e+00
"Vn_D1:n" 5.390851911470154e-07
"Vn_D1:p" -5.390851911470154e-07
"Vn_GND:n" -9.692730476560315e-08
"Vn_GND:p" 9.692730476560315e-08
"Vn_SD:n" -8.042275759648664e-10
"Vn_SD:p" 8.042275759648664e-10
"Vn_VDD:n" -4.412934424229884e-07
"Vn_VDD:p" 4.412934424229884e-07
"Vn_Z:n" -6.016250667623614e-11
"Vn_Z:p" 6.016250667623614e-11
"time" 6.020015609000002e-09
"Vn_D1:v" 0.000000000000000e+00
"Vn_D1:i" -5.483629524113562e-07
"Vn_D1:pwr" -0.000000000000000e+00
"Vn_GND:v" 0.000000000000000e+00
"Vn_GND:i" 9.853922035951343e-08
"Vn_GND:pwr" 0.000000000000000e+00
"Vn_SD:v" 0.000000000000000e+00
"Vn_SD:i" 1.621181827637081e-09
"Vn_SD:pwr" 0.000000000000000e+00
"Vn_VDD:v" 1.200000000000000e+00
"Vn_VDD:i" 4.479712820268805e-07
"Vn_VDD:pwr" 5.375655384322566e-07
"Vn_Z:v" 0.000000000000000e+00
"Vn_Z:i" 2.312121287571760e-10
"Vn_Z:pwr" 0.000000000000000e+00
"n_Z" 1.199999495221778e+00
"n_D1" 7.615201955307027e-06
"n_SD" 1.200000000000000e+00
"Vn_D1:n" 5.483629524113562e-07
"Vn_D1:p" -5.483629524113562e-07
"Vn_GND:n" -9.853922035951343e-08
"Vn_GND:p" 9.853922035951343e-08
"Vn_SD:n" -1.621181827637081e-09
"Vn_SD:p" 1.621181827637081e-09
"Vn_VDD:n" -4.479712820268805e-07
"Vn_VDD:p" 4.479712820268805e-07
"Vn_Z:n" -2.312121287571760e-10
"Vn_Z:p" 2.312121287571760e-10
"time" 6.020032258600003e-09
"Vn_D1:v" 0.000000000000000e+00
"Vn_D1:i" -5.654016945743201e-07
"Vn_D1:pwr" -0.000000000000000e+00
"Vn_GND:v" 0.000000000000000e+00
"Vn_GND:i" 1.015101520129616e-07
"Vn_GND:pwr" 0.000000000000000e+00
"Vn_SD:v" 0.000000000000000e+00
"Vn_SD:i" 3.133690662261823e-09
"Vn_SD:pwr" 0.000000000000000e+00
"Vn_VDD:v" 1.200000000000000e+00
"Vn_VDD:i" 4.599554921705500e-07
"Vn_VDD:pwr" 5.519465906046601e-07
"Vn_Z:v" 0.000000000000000e+00
"Vn_Z:i" 8.023059920330063e-10
"Vn_Z:pwr" 0.000000000000000e+00
"n_Z" 1.199999497485944e+00
"n_D1" 1.547605558659170e-05
"n_SD" 1.200000000000000e+00
"Vn_D1:n" 5.654016945743201e-07
"Vn_D1:p" -5.654016945743201e-07
"Vn_GND:n" -1.015101520129616e-07
"Vn_GND:p" 1.015101520129616e-07
"Vn_SD:n" -3.133690662261823e-09
"Vn_SD:p" 3.133690662261823e-09
"Vn_VDD:n" -4.599554921705500e-07
"Vn_VDD:p" 4.599554921705500e-07
"Vn_Z:n" -8.023059920330063e-10
"Vn_Z:p" 8.023059920330063e-10
"time" 6.020065557800006e-09
"Vn_D1:v" 0.000000000000000e+00
"Vn_D1:i" -5.817058819486681e-07
"Vn_D1:pwr" -0.000000000000000e+00
"Vn_GND:v" 0.000000000000000e+00
"Vn_GND:i" 1.066227975702852e-07
"Vn_GND:pwr" 0.000000000000000e+00
"Vn_SD:v" 0.000000000000000e+00
"Vn_SD:i" 5.738953243124159e-09
"Vn_SD:pwr" 0.000000000000000e+00
"Vn_VDD:v" 1.200000000000000e+00
"Vn_VDD:i" 4.669247437024032e-07
"Vn_VDD:pwr" 5.603096924428838e-07
"Vn_Z:v" 0.000000000000000e+00
"Vn_Z:i" 2.419331277060292e-09
"Vn_Z:pwr" 0.000000000000000e+00
"n_Z" 1.199999511601463e+00
"n_D1" 3.119776284916105e-05
"n_SD" 1.200000000000000e+00
"Vn_D1:n" 5.817058819486681e-07
"Vn_D1:p" -5.817058819486681e-07
"Vn_GND:n" -1.066227975702852e-07
"Vn_GND:p" 1.066227975702852e-07
"Vn_SD:n" -5.738953243124159e-09
"Vn_SD:p" 5.738953243124159e-09
"Vn_VDD:n" -4.669247437024032e-07
"Vn_VDD:p" 4.669247437024032e-07
"Vn_Z:n" -2.419331277060292e-09
"Vn_Z:p" 2.419331277060292e-09
"time" 6.020132156200012e-09
"Vn_D1:v" 0.000000000000000e+00
"Vn_D1:i" -6.292974312053065e-07
"Vn_D1:pwr" -0.000000000000000e+00
"Vn_GND:v" 0.000000000000000e+00
"Vn_GND:i" 1.141829331810917e-07
"Vn_GND:pwr" 0.000000000000000e+00
"Vn_SD:v" 0.000000000000000e+00
"Vn_SD:i" 9.659050442726516e-09
"Vn_SD:pwr" 0.000000000000000e+00
"Vn_VDD:v" 1.200000000000000e+00
"Vn_VDD:i" 4.994538018282035e-07
"Vn_VDD:pwr" 5.993445621938441e-07
"Vn_Z:v" 0.000000000000000e+00
"Vn_Z:i" 6.001592049487449e-09
"Vn_Z:pwr" 0.000000000000000e+00
"n_Z" 1.199999585393572e+00
"n_D1" 6.264117737429975e-05
"n_SD" 1.200000000000000e+00
"Vn_D1:n" 6.292974312053065e-07
"Vn_D1:p" -6.292974312053065e-07
"Vn_GND:n" -1.141829331810917e-07
"Vn_GND:p" 1.141829331810917e-07
"Vn_SD:n" -9.659050442726516e-09
"Vn_SD:p" 9.659050442726516e-09
"Vn_VDD:n" -4.994538018282035e-07
"Vn_VDD:p" 4.994538018282035e-07
"Vn_Z:n" -6.001592049487449e-09
"Vn_Z:p" 6.001592049487449e-09
"time" 6.020265353000023e-09
"Vn_D1:v" 0.000000000000000e+00
"Vn_D1:i" -6.664207204844195e-07
"Vn_D1:pwr" -0.000000000000000e+00
"Vn_GND:v" 0.000000000000000e+00
"Vn_GND:i" 1.228737097845660e-07
"Vn_GND:pwr" 0.000000000000000e+00
"Vn_SD:v" 0.000000000000000e+00
"Vn_SD:i" 1.423553739306175e-08