HEADER
"PSFversion" "1.00"
"simulator" "spectre"
"version" "10.1.1.164.isr11"
"date" "3:01:57 PM, Fri Oct 17, 2014"
"design" "* Spectre Timing Acquisition"
"analysis type" "tran"
"analysis name" "transient1-020_transient1"
"analysis description" "Transient Analysis `transient1-020_transient1': time = (0 s -> 39 ns)"
"xVecSorted" "ascending"
"tolerance.relative" 0.00100000
"start" 0.00000
"outputstart" 0.00000
"stop" 3.90000e-08
"step" 3.90000e-11
"maxstep" 7.80000e-10
"ic" "all"
"useprevic" "no"
"skipdc" "no"
"reltol" 0.00100000
"abstol(V)" 1.00000e-06
"abstol(I)" 1.00000e-12
"temp" 25.0000
"tnom" 27.0000
"tempeffects" "all"
"errpreset" "moderate"
"method" "traponly"
"lteratio" 3.50000
"relref" "sigglobal"
"cmin" 0.00000
"gmin" 1.00000e-12
TYPE
"sweep" FLOAT DOUBLE PROP(
"key" "sweep"
)
"Tau" FLOAT DOUBLE PROP(
"units" "N*m"
"key" "node"
"tolerance" 1.00000e-06
)
"Alpha" FLOAT DOUBLE PROP(
"units" "rads/s^2"
"key" "node"
"tolerance" 1.00000e-06
)
"Omega" FLOAT DOUBLE PROP(
"units" "rads/s"
"key" "node"
"tolerance" 1.00000e-06
)
"Theta" FLOAT DOUBLE PROP(
"units" "rads"
"key" "node"
"tolerance" 1.00000e-06
)
"F" FLOAT DOUBLE PROP(
"units" "N"
"key" "node"
"tolerance" 1.00000e-06
)
"Imp" FLOAT DOUBLE PROP(
"units" "m/s^3"
"key" "node"
"tolerance" 1.00000e-06
)
"Acc" FLOAT DOUBLE PROP(
"units" "m/s^2"
"key" "node"
"tolerance" 1.00000e-06
)
"Vel" FLOAT DOUBLE PROP(
"units" "m/s"
"key" "node"
"tolerance" 1.00000e-06
)
"Pos" FLOAT DOUBLE PROP(
"units" "m"
"key" "node"
"tolerance" 1.00000e-06
)
"Phi" FLOAT DOUBLE PROP(
"units" "Wb"
"key" "node"
"tolerance" 1.00000e-09
)
"Q" FLOAT DOUBLE PROP(
"units" "coul"
"key" "node"
"tolerance" 1.00000e-14
)
"V" FLOAT DOUBLE PROP(
"units" "V"
"key" "node"
"tolerance" 1.00000e-06
)
"I" FLOAT DOUBLE PROP(
"units" "A"
"key" "branch"
"tolerance" 1.00000e-12
)
"MMF" FLOAT DOUBLE PROP(
"units" "A*turn"
"key" "node"
"tolerance" 1.00000e-12
)
"Wb" FLOAT DOUBLE PROP(
"units" "Wb"
"key" "node"
"tolerance" 1.00000e-09
)
"Temp" FLOAT DOUBLE PROP(
"units" "C"
"key" "node"
"tolerance" 0.000100000
)
"Pwr" FLOAT DOUBLE PROP(
"units" "W"
"key" "node"
"tolerance" 1.00000e-09
)
"U" FLOAT DOUBLE PROP(
"units" ""
"key" "node"
"tolerance" 1.00000e-06
)
"V/Sec" FLOAT DOUBLE PROP(
"units" "V/s"
"key" "node"
"tolerance" 0.000100000
)
"I/Sec" FLOAT DOUBLE PROP(
"units" "A/s"
"key" "node"
"tolerance" 1.00000e-06
)
"1/Sec" FLOAT DOUBLE PROP(
"units" "1/s"
"key" "node"
"tolerance" 0.000100000
)
"HOD" FLOAT DOUBLE PROP(
"units" ""
"key" "node"
"tolerance" 0.0100000
)
"A" FLOAT DOUBLE PROP(
"key" "inst"
)
"W" FLOAT DOUBLE PROP(
"key" "inst"
)
SWEEP
"time" "sweep" PROP(
"sweep_direction" 0
"units" "s"
"plot" 0
"grid" 1
)
TRACE
"Vn_D1:v" "V" PROP(
"units" "V"
)
"Vn_D1:i" "A" PROP(
"units" "A"
)
"Vn_D1:pwr" "W" PROP(
"units" "W"
)
"Vn_GND:v" "V" PROP(
"units" "V"
)
"Vn_GND:i" "A" PROP(
"units" "A"
)
"Vn_GND:pwr" "W" PROP(
"units" "W"
)
"Vn_SD:v" "V" PROP(
"units" "V"
)
"Vn_SD:i" "A" PROP(
"units" "A"
)
"Vn_SD:pwr" "W" PROP(
"units" "W"
)
"Vn_VDD:v" "V" PROP(
"units" "V"
)
"Vn_VDD:i" "A" PROP(
"units" "A"
)
"Vn_VDD:pwr" "W" PROP(
"units" "W"
)
"Vn_Z:v" "V" PROP(
"units" "V"
)
"Vn_Z:i" "A" PROP(
"units" "A"
)
"Vn_Z:pwr" "W" PROP(
"units" "W"
)
"n_Z" "V"
"n_D1" "V"
"n_SD" "V"
"Vn_D1:n" "I"
"Vn_D1:p" "I"
"Vn_GND:n" "I"
"Vn_GND:p" "I"
"Vn_SD:n" "I"
"Vn_SD:p" "I"
"Vn_VDD:n" "I"
"Vn_VDD:p" "I"
"Vn_Z:n" "I"
"Vn_Z:p" "I"
VALUE
"time" 0.000000000000000e+00
"Vn_D1:v" 0.000000000000000e+00
"Vn_D1:i" 7.517119452868265e-14
"Vn_D1:pwr" 0.000000000000000e+00
"Vn_GND:v" 0.000000000000000e+00
"Vn_GND:i" 2.548493107913159e-10
"Vn_GND:pwr" 0.000000000000000e+00
"Vn_SD:v" 0.000000000000000e+00
"Vn_SD:i" -5.105704018311278e-13
"Vn_SD:pwr" -0.000000000000000e+00
"Vn_VDD:v" 1.200000000000000e+00
"Vn_VDD:i" -2.544688430803598e-10
"Vn_VDD:pwr" -3.053626116964317e-10
"Vn_Z:v" 0.000000000000000e+00
"Vn_Z:i" 0.000000000000000e+00
"Vn_Z:pwr" 0.000000000000000e+00
"n_Z" 1.199999494927445e+00
"n_D1" 0.000000000000000e+00
"n_SD" 1.200000000000000e+00
"Vn_D1:n" -7.517119452868265e-14
"Vn_D1:p" 7.517119452868265e-14
"Vn_GND:n" -2.548493107913159e-10
"Vn_GND:p" 2.548493107913159e-10
"Vn_SD:n" 5.105704018311278e-13
"Vn_SD:p" -5.105704018311278e-13
"Vn_VDD:n" 2.544688430803598e-10
"Vn_VDD:p" -2.544688430803598e-10
"Vn_Z:n" 0.000000000000000e+00
"Vn_Z:p" 0.000000000000000e+00
"time" 3.900000000000000e-11
"Vn_D1:v" 0.000000000000000e+00
"Vn_D1:i" 7.486143249336401e-14
"Vn_D1:pwr" 0.000000000000000e+00
"Vn_GND:v" 0.000000000000000e+00
"Vn_GND:i" 2.548643393137513e-10
"Vn_GND:pwr" 0.000000000000000e+00
"Vn_SD:v" 0.000000000000000e+00
"Vn_SD:i" -5.109604250088589e-13
"Vn_SD:pwr" -0.000000000000000e+00
"Vn_VDD:v" 1.200000000000000e+00
"Vn_VDD:i" -2.544783908680331e-10
"Vn_VDD:pwr" -3.053740690416397e-10
"Vn_Z:v" 0.000000000000000e+00
"Vn_Z:i" -4.780948863564826e-15
"Vn_Z:pwr" -0.000000000000000e+00
"n_Z" 1.199999494890153e+00
"n_D1" 0.000000000000000e+00
"n_SD" 1.200000000000000e+00
"Vn_D1:n" -7.486143249336401e-14
"Vn_D1:p" 7.486143249336401e-14
"Vn_GND:n" -2.548643393137513e-10
"Vn_GND:p" 2.548643393137513e-10
"Vn_SD:n" 5.109604250088589e-13
"Vn_SD:p" -5.109604250088589e-13
"Vn_VDD:n" 2.544783908680331e-10
"Vn_VDD:p" -2.544783908680331e-10
"Vn_Z:n" 4.780948863564826e-15
"Vn_Z:p" -4.780948863564826e-15
"time" 1.170000000000000e-10
"Vn_D1:v" 0.000000000000000e+00
"Vn_D1:i" 7.504752772025966e-14
"Vn_D1:pwr" 0.000000000000000e+00
"Vn_GND:v" 0.000000000000000e+00
"Vn_GND:i" 2.548656910647713e-10
"Vn_GND:pwr" 0.000000000000000e+00
"Vn_SD:v" 0.000000000000000e+00
"Vn_SD:i" -5.107113494303795e-13
"Vn_SD:pwr" -0.000000000000000e+00
"Vn_VDD:v" 1.200000000000000e+00
"Vn_VDD:i" -2.544834008518459e-10
"Vn_VDD:pwr" -3.053800810222151e-10
"Vn_Z:v" 0.000000000000000e+00
"Vn_Z:i" -1.557890515990374e-15
"Vn_Z:pwr" -0.000000000000000e+00
"n_Z" 1.199999494865850e+00
"n_D1" 0.000000000000000e+00
"n_SD" 1.200000000000000e+00
"Vn_D1:n" -7.504752772025966e-14
"Vn_D1:p" 7.504752772025966e-14
"Vn_GND:n" -2.548656910647713e-10
"Vn_GND:p" 2.548656910647713e-10
"Vn_SD:n" 5.107113494303795e-13
"Vn_SD:p" -5.107113494303795e-13
"Vn_VDD:n" 2.544834008518459e-10
"Vn_VDD:p" -2.544834008518459e-10
"Vn_Z:n" 1.557890515990374e-15
"Vn_Z:p" -1.557890515990374e-15
"time" 2.730000000000000e-10
"Vn_D1:v" 0.000000000000000e+00
"Vn_D1:i" 7.521177730222040e-14
"Vn_D1:pwr" 0.000000000000000e+00
"Vn_GND:v" 0.000000000000000e+00
"Vn_GND:i" 2.548665260009062e-10
"Vn_GND:pwr" 0.000000000000000e+00
"Vn_SD:v" 0.000000000000000e+00
"Vn_SD:i" -5.105237412281797e-13
"Vn_SD:pwr" -0.000000000000000e+00
"Vn_VDD:v" 1.200000000000000e+00
"Vn_VDD:i" -2.544866820468691e-10
"Vn_VDD:pwr" -3.053840184562430e-10
"Vn_Z:v" 0.000000000000000e+00
"Vn_Z:i" 5.317748903860175e-16
"Vn_Z:pwr" 0.000000000000000e+00
"n_Z" 1.199999494849843e+00
"n_D1" 0.000000000000000e+00
"n_SD" 1.200000000000000e+00
"Vn_D1:n" -7.521177730222040e-14
"Vn_D1:p" 7.521177730222040e-14
"Vn_GND:n" -2.548665260009062e-10
"Vn_GND:p" 2.548665260009062e-10
"Vn_SD:n" 5.105237412281797e-13
"Vn_SD:p" -5.105237412281797e-13
"Vn_VDD:n" 2.544866820468691e-10
"Vn_VDD:p" -2.544866820468691e-10
"Vn_Z:n" -5.317748903860175e-16
"Vn_Z:p" 5.317748903860175e-16
"time" 5.850000000000002e-10
"Vn_D1:v" 0.000000000000000e+00
"Vn_D1:i" 7.514772913879913e-14
"Vn_D1:pwr" 0.000000000000000e+00
"Vn_GND:v" 0.000000000000000e+00
"Vn_GND:i" 2.548661627907233e-10
"Vn_GND:pwr" 0.000000000000000e+00
"Vn_SD:v" 0.000000000000000e+00
"Vn_SD:i" -5.105976659523956e-13
"Vn_SD:pwr" -0.000000000000000e+00
"Vn_VDD:v" 1.200000000000000e+00
"Vn_VDD:i" -2.544853205648554e-10
"Vn_VDD:pwr" -3.053823846778265e-10
"Vn_Z:v" 0.000000000000000e+00
"Vn_Z:i" -3.198804732401561e-16
"Vn_Z:pwr" -0.000000000000000e+00
"n_Z" 1.199999494856454e+00
"n_D1" 0.000000000000000e+00
"n_SD" 1.200000000000000e+00
"Vn_D1:n" -7.514772913879913e-14
"Vn_D1:p" 7.514772913879913e-14
"Vn_GND:n" -2.548661627907233e-10
"Vn_GND:p" 2.548661627907233e-10
"Vn_SD:n" 5.105976659523956e-13
"Vn_SD:p" -5.105976659523956e-13
"Vn_VDD:n" 2.544853205648554e-10
"Vn_VDD:p" -2.544853205648554e-10
"Vn_Z:n" 3.198804732401561e-16
"Vn_Z:p" -3.198804732401561e-16
"time" 1.209000000000000e-09
"Vn_D1:v" 0.000000000000000e+00
"Vn_D1:i" 7.518919472008337e-14
"Vn_D1:pwr" 0.000000000000000e+00
"Vn_GND:v" 0.000000000000000e+00
"Vn_GND:i" 2.548663582200941e-10
"Vn_GND:pwr" 0.000000000000000e+00
"Vn_SD:v" 0.000000000000000e+00
"Vn_SD:i" -5.105492952714770e-13
"Vn_SD:pwr" -0.000000000000000e+00
"Vn_VDD:v" 1.200000000000000e+00
"Vn_VDD:i" -2.544861835963925e-10
"Vn_VDD:pwr" -3.053834203156710e-10
"Vn_Z:v" 0.000000000000000e+00
"Vn_Z:i" 2.522969395087972e-16
"Vn_Z:pwr" 0.000000000000000e+00
"n_Z" 1.199999494852237e+00
"n_D1" 0.000000000000000e+00
"n_SD" 1.200000000000000e+00
"Vn_D1:n" -7.518919472008337e-14
"Vn_D1:p" 7.518919472008337e-14
"Vn_GND:n" -2.548663582200941e-10
"Vn_GND:p" 2.548663582200941e-10
"Vn_SD:n" 5.105492952714770e-13
"Vn_SD:p" -5.105492952714770e-13
"Vn_VDD:n" 2.544861835963925e-10
"Vn_VDD:p" -2.544861835963925e-10
"Vn_Z:n" -2.522969395087972e-16
"Vn_Z:p" 2.522969395087972e-16
"time" 1.989000000000000e-09
"Vn_D1:v" 0.000000000000000e+00
"Vn_D1:i" 7.515701474794044e-14
"Vn_D1:pwr" 0.000000000000000e+00
"Vn_GND:v" 0.000000000000000e+00
"Vn_GND:i" 2.548661266665012e-10
"Vn_GND:pwr" 0.000000000000000e+00
"Vn_SD:v" 0.000000000000000e+00
"Vn_SD:i" -5.105871877170400e-13
"Vn_SD:pwr" -0.000000000000000e+00
"Vn_VDD:v" 1.200000000000000e+00
"Vn_VDD:i" -2.544854140656643e-10
"Vn_VDD:pwr" -3.053824968787972e-10
"Vn_Z:v" 0.000000000000000e+00
"Vn_Z:i" -2.049152873630299e-16
"Vn_Z:pwr" -0.000000000000000e+00
"n_Z" 1.199999494855932e+00
"n_D1" 0.000000000000000e+00
"n_SD" 1.200000000000000e+00
"Vn_D1:n" -7.515701474794044e-14
"Vn_D1:p" 7.515701474794044e-14
"Vn_GND:n" -2.548661266665012e-10
"Vn_GND:p" 2.548661266665012e-10
"Vn_SD:n" 5.105871877170400e-13
"Vn_SD:p" -5.105871877170400e-13
"Vn_VDD:n" 2.544854140656643e-10
"Vn_VDD:p" -2.544854140656643e-10
"Vn_Z:n" 2.049152873630299e-16
"Vn_Z:p" -2.049152873630299e-16
"time" 2.769000000000001e-09
"Vn_D1:v" 0.000000000000000e+00
"Vn_D1:i" 7.518249666813663e-14
"Vn_D1:pwr" 0.000000000000000e+00
"Vn_GND:v" 0.000000000000000e+00
"Vn_GND:i" 2.548662332298053e-10
"Vn_GND:pwr" 0.000000000000000e+00
"Vn_SD:v" 0.000000000000000e+00
"Vn_SD:i" -5.105568546037642e-13
"Vn_SD:pwr" -0.000000000000000e+00
"Vn_VDD:v" 1.200000000000000e+00
"Vn_VDD:i" -2.544859735062877e-10
"Vn_VDD:pwr" -3.053831682075453e-10
"Vn_Z:v" 0.000000000000000e+00
"Vn_Z:i" 1.704515760134255e-16
"Vn_Z:pwr" 0.000000000000000e+00
"n_Z" 1.199999494853245e+00
"n_D1" 0.000000000000000e+00
"n_SD" 1.200000000000000e+00
"Vn_D1:n" -7.518249666813663e-14
"Vn_D1:p" 7.518249666813663e-14
"Vn_GND:n" -2.548662332298053e-10
"Vn_GND:p" 2.548662332298053e-10
"Vn_SD:n" 5.105568546037642e-13
"Vn_SD:p" -5.105568546037642e-13
"Vn_VDD:n" 2.544859735062877e-10
"Vn_VDD:p" -2.544859735062877e-10
"Vn_Z:n" -1.704515760134255e-16
"Vn_Z:p" 1.704515760134255e-16
"time" 3.000000000000000e-09
"Vn_D1:v" 0.000000000000000e+00
"Vn_D1:i" 7.516681457257004e-14
"Vn_D1:pwr" 0.000000000000000e+00
"Vn_GND:v" 0.000000000000000e+00
"Vn_GND:i" 2.548661166155729e-10
"Vn_GND:pwr" 0.000000000000000e+00
"Vn_SD:v" 0.000000000000000e+00
"Vn_SD:i" -5.105761446389419e-13
"Vn_SD:pwr" -0.000000000000000e+00
"Vn_VDD:v" 1.200000000000000e+00
"Vn_VDD:i" -2.544855432541942e-10
"Vn_VDD:pwr" -3.053826519050331e-10
"Vn_Z:v" 0.000000000000000e+00
"Vn_Z:i" -8.334972299673769e-17
"Vn_Z:pwr" -0.000000000000000e+00
"n_Z" 1.199999494855257e+00
"n_D1" 0.000000000000000e+00
"n_SD" 1.200000000000000e+00
"Vn_D1:n" -7.516681457257004e-14
"Vn_D1:p" 7.516681457257004e-14
"Vn_GND:n" -2.548661166155729e-10
"Vn_GND:p" 2.548661166155729e-10
"Vn_SD:n" 5.105761446389419e-13
"Vn_SD:p" -5.105761446389419e-13
"Vn_VDD:n" 2.544855432541942e-10
"Vn_VDD:p" -2.544855432541942e-10
"Vn_Z:n" 8.334972299673769e-17
"Vn_Z:p" -8.334972299673769e-17
"time" 3.010000000000000e-09
"Vn_D1:v" 0.000000000000000e+00
"Vn_D1:i" 7.516603635844276e-14
"Vn_D1:pwr" 0.000000000000000e+00
"Vn_GND:v" 0.000000000000000e+00
"Vn_GND:i" 2.548661235166850e-10
"Vn_GND:pwr" 0.000000000000000e+00
"Vn_SD:v" 0.000000000000000e+00
"Vn_SD:i" -5.105760515228495e-13
"Vn_SD:pwr" -0.000000000000000e+00
"Vn_VDD:v" 1.200000000000000e+00
"Vn_VDD:i" -2.544855788774453e-10
"Vn_VDD:pwr" -3.053826946529343e-10
"Vn_Z:v" 0.000000000000000e+00
"Vn_Z:i" -6.609050846339925e-17
"Vn_Z:pwr" -0.000000000000000e+00
"n_Z" 1.199999494855124e+00
"n_D1" 0.000000000000000e+00
"n_SD" 1.200000000000000e+00
"Vn_D1:n" -7.516603635844276e-14
"Vn_D1:p" 7.516603635844276e-14
"Vn_GND:n" -2.548661235166850e-10
"Vn_GND:p" 2.548661235166850e-10
"Vn_SD:n" 5.105760515228495e-13
"Vn_SD:p" -5.105760515228495e-13
"Vn_VDD:n" 2.544855788774453e-10
"Vn_VDD:p" -2.544855788774453e-10
"Vn_Z:n" 6.609050846339925e-17
"Vn_Z:p" -6.609050846339925e-17
"time" 3.030000000000000e-09
"Vn_D1:v" 0.000000000000000e+00
"Vn_D1:i" 7.516772667431505e-14
"Vn_D1:pwr" 0.000000000000000e+00
"Vn_GND:v" 0.000000000000000e+00
"Vn_GND:i" 2.548661318118638e-10
"Vn_GND:pwr" 0.000000000000000e+00
"Vn_SD:v" 0.000000000000000e+00
"Vn_SD:i" -5.105742473817367e-13
"Vn_SD:pwr" -0.000000000000000e+00
"Vn_VDD:v" 1.200000000000000e+00
"Vn_VDD:i" -2.544856137583785e-10
"Vn_VDD:pwr" -3.053827365100542e-10
"Vn_Z:v" 0.000000000000000e+00
"Vn_Z:i" -4.303809664439359e-17
"Vn_Z:pwr" -0.000000000000000e+00
"n_Z" 1.199999494854952e+00
"n_D1" 0.000000000000000e+00
"n_SD" 1.200000000000000e+00
"Vn_D1:n" -7.516772667431505e-14
"Vn_D1:p" 7.516772667431505e-14
"Vn_GND:n" -2.548661318118638e-10
"Vn_GND:p" 2.548661318118638e-10
"Vn_SD:n" 5.105742473817367e-13
"Vn_SD:p" -5.105742473817367e-13
"Vn_VDD:n" 2.544856137583785e-10
"Vn_VDD:p" -2.544856137583785e-10
"Vn_Z:n" 4.303809664439359e-17
"Vn_Z:p" -4.303809664439359e-17
"time" 3.070000000000001e-09
"Vn_D1:v" 0.000000000000000e+00
"Vn_D1:i" 7.517024463642299e-14
"Vn_D1:pwr" 0.000000000000000e+00
"Vn_GND:v" 0.000000000000000e+00
"Vn_GND:i" 2.548661417931136e-10
"Vn_GND:pwr" 0.000000000000000e+00
"Vn_SD:v" 0.000000000000000e+00
"Vn_SD:i" -5.105716926483760e-13
"Vn_SD:pwr" -0.000000000000000e+00
"Vn_VDD:v" 1.200000000000000e+00
"Vn_VDD:i" -2.544856596168957e-10
"Vn_VDD:pwr" -3.053827915402748e-10
"Vn_Z:v" 0.000000000000000e+00
"Vn_Z:i" -1.238530896805340e-17
"Vn_Z:pwr" -0.000000000000000e+00
"n_Z" 1.199999494854731e+00
"n_D1" 0.000000000000000e+00
"n_SD" 1.200000000000000e+00
"Vn_D1:n" -7.517024463642299e-14
"Vn_D1:p" 7.517024463642299e-14
"Vn_GND:n" -2.548661417931136e-10
"Vn_GND:p" 2.548661417931136e-10
"Vn_SD:n" 5.105716926483760e-13
"Vn_SD:p" -5.105716926483760e-13
"Vn_VDD:n" 2.544856596168957e-10
"Vn_VDD:p" -2.544856596168957e-10
"Vn_Z:n" 1.238530896805340e-17
"Vn_Z:p" -1.238530896805340e-17
"time" 3.150000000000003e-09
"Vn_D1:v" 0.000000000000000e+00
"Vn_D1:i" 7.517126352571064e-14
"Vn_D1:pwr" 0.000000000000000e+00
"Vn_GND:v" 0.000000000000000e+00
"Vn_GND:i" 2.548661429195964e-10
"Vn_GND:pwr" 0.000000000000000e+00
"Vn_SD:v" 0.000000000000000e+00
"Vn_SD:i" -5.105699802323097e-13
"Vn_SD:pwr" -0.000000000000000e+00
"Vn_VDD:v" 1.200000000000000e+00
"Vn_VDD:i" -2.544856700139387e-10
"Vn_VDD:pwr" -3.053828040167264e-10
"Vn_Z:v" 0.000000000000000e+00
"Vn_Z:i" 2.084446715528251e-18
"Vn_Z:pwr" 0.000000000000000e+00
"n_Z" 1.199999494854648e+00
"n_D1" 0.000000000000000e+00
"n_SD" 1.200000000000000e+00
"Vn_D1:n" -7.517126352571064e-14
"Vn_D1:p" 7.517126352571064e-14
"Vn_GND:n" -2.548661429195964e-10
"Vn_GND:p" 2.548661429195964e-10
"Vn_SD:n" 5.105699802323097e-13
"Vn_SD:p" -5.105699802323097e-13
"Vn_VDD:n" 2.544856700139387e-10
"Vn_VDD:p" -2.544856700139387e-10
"Vn_Z:n" -2.084446715528251e-18
"Vn_Z:p" 2.084446715528251e-18
"time" 3.310000000000005e-09
"Vn_D1:v" 0.000000000000000e+00
"Vn_D1:i" 7.517137081325540e-14
"Vn_D1:pwr" 0.000000000000000e+00
"Vn_GND:v" 0.000000000000000e+00
"Vn_GND:i" 2.548661334700168e-10
"Vn_GND:pwr" 0.000000000000000e+00
"Vn_SD:v" 0.000000000000000e+00
"Vn_SD:i" -5.105705681338175e-13
"Vn_SD:pwr" -0.000000000000000e+00
"Vn_VDD:v" 1.200000000000000e+00
"Vn_VDD:i" -2.544856748088782e-10
"Vn_VDD:pwr" -3.053828097706538e-10
"Vn_Z:v" 0.000000000000000e+00
"Vn_Z:i" 1.532474915375879e-19
"Vn_Z:pwr" 0.000000000000000e+00
"n_Z" 1.199999494854684e+00
"n_D1" 0.000000000000000e+00
"n_SD" 1.200000000000000e+00
"Vn_D1:n" -7.517137081325540e-14
"Vn_D1:p" 7.517137081325540e-14
"Vn_GND:n" -2.548661334700168e-10
"Vn_GND:p" 2.548661334700168e-10
"Vn_SD:n" 5.105705681338175e-13
"Vn_SD:p" -5.105705681338175e-13
"Vn_VDD:n" 2.544856748088782e-10
"Vn_VDD:p" -2.544856748088782e-10
"Vn_Z:n" -1.532474915375879e-19
"Vn_Z:p" 1.532474915375879e-19
"time" 3.630000000000011e-09
"Vn_D1:v" 0.000000000000000e+00
"Vn_D1:i" 7.517122776854049e-14
"Vn_D1:pwr" 0.000000000000000e+00
"Vn_GND:v" 0.000000000000000e+00
"Vn_GND:i" 2.548661145248817e-10
"Vn_GND:pwr" 0.000000000000000e+00
"Vn_SD:v" 0.000000000000000e+00
"Vn_SD:i" -5.105699604473782e-13
"Vn_SD:pwr" -0.000000000000000e+00
"Vn_VDD:v" 1.200000000000000e+00
"Vn_VDD:i" -2.544856404769725e-10
"Vn_VDD:pwr" -3.053827685723670e-10
"Vn_Z:v" 0.000000000000000e+00
"Vn_Z:i" 2.421581059668210e-18
"Vn_Z:pwr" 0.000000000000000e+00
"n_Z" 1.199999494854767e+00
"n_D1" 0.000000000000000e+00
"n_SD" 1.200000000000000e+00
"Vn_D1:n" -7.517122776854049e-14
"Vn_D1:p" 7.517122776854049e-14
"Vn_GND:n" -2.548661145248817e-10
"Vn_GND:p" 2.548661145248817e-10
"Vn_SD:n" 5.105699604473782e-13
"Vn_SD:p" -5.105699604473782e-13
"Vn_VDD:n" 2.544856404769725e-10
"Vn_VDD:p" -2.544856404769725e-10
"Vn_Z:n" -2.421581059668210e-18
"Vn_Z:p" 2.421581059668210e-18
"time" 4.270000000000022e-09
"Vn_D1:v" 0.000000000000000e+00
"Vn_D1:i" 7.517125856330327e-14
"Vn_D1:pwr" 0.000000000000000e+00
"Vn_GND:v" 0.000000000000000e+00
"Vn_GND:i" 2.548660769460159e-10
"Vn_GND:pwr" 0.000000000000000e+00
"Vn_SD:v" 0.000000000000000e+00
"Vn_SD:i" -5.105707358392310e-13
"Vn_SD:pwr" -0.000000000000000e+00
"Vn_VDD:v" 1.200000000000000e+00
"Vn_VDD:i" -2.544856179160608e-10
"Vn_VDD:pwr" -3.053827414992729e-10
"Vn_Z:v" 0.000000000000000e+00
"Vn_Z:i" 1.165095739327020e-23
"Vn_Z:pwr" 0.000000000000000e+00
"n_Z" 1.199999494854921e+00
"n_D1" 0.000000000000000e+00
"n_SD" 1.200000000000000e+00
"Vn_D1:n" -7.517125856330327e-14
"Vn_D1:p" 7.517125856330327e-14
"Vn_GND:n" -2.548660769460159e-10
"Vn_GND:p" 2.548660769460159e-10
"Vn_SD:n" 5.105707358392310e-13
"Vn_SD:p" -5.105707358392310e-13
"Vn_VDD:n" 2.544856179160608e-10
"Vn_VDD:p" -2.544856179160608e-10
"Vn_Z:n" -1.165095739327020e-23
"Vn_Z:p" 1.165095739327020e-23
"time" 5.050000000000022e-09
"Vn_D1:v" 0.000000000000000e+00
"Vn_D1:i" 7.517133746933294e-14
"Vn_D1:pwr" 0.000000000000000e+00
"Vn_GND:v" 0.000000000000000e+00
"Vn_GND:i" 2.548660326258692e-10
"Vn_GND:pwr" 0.000000000000000e+00
"Vn_SD:v" 0.000000000000000e+00
"Vn_SD:i" -5.105698263406844e-13
"Vn_SD:pwr" -0.000000000000000e+00
"Vn_VDD:v" 1.200000000000000e+00
"Vn_VDD:i" -2.544855596608758e-10
"Vn_VDD:pwr" -3.053826715930509e-10
"Vn_Z:v" 0.000000000000000e+00
"Vn_Z:i" 2.508831518275167e-18
"Vn_Z:pwr" 0.000000000000000e+00
"n_Z" 1.199999494855117e+00
"n_D1" 0.000000000000000e+00
"n_SD" 1.200000000000000e+00
"Vn_D1:n" -7.517133746933294e-14
"Vn_D1:p" 7.517133746933294e-14
"Vn_GND:n" -2.548660326258692e-10
"Vn_GND:p" 2.548660326258692e-10
"Vn_SD:n" 5.105698263406844e-13
"Vn_SD:p" -5.105698263406844e-13
"Vn_VDD:n" 2.544855596608758e-10
"Vn_VDD:p" -2.544855596608758e-10
"Vn_Z:n" -2.508831518275167e-18
"Vn_Z:p" 2.508831518275167e-18
"time" 5.830000000000022e-09
"Vn_D1:v" 0.000000000000000e+00
"Vn_D1:i" 7.517116117494919e-14
"Vn_D1:pwr" 0.000000000000000e+00
"Vn_GND:v" 0.000000000000000e+00
"Vn_GND:i" 2.548659859621248e-10
"Vn_GND:pwr" 0.000000000000000e+00
"Vn_SD:v" 0.000000000000000e+00
"Vn_SD:i" -5.105708382734734e-13
"Vn_SD:pwr" -0.000000000000000e+00
"Vn_VDD:v" 1.200000000000000e+00
"Vn_VDD:i" -2.544855233536504e-10
"Vn_VDD:pwr" -3.053826280243805e-10
"Vn_Z:v" 0.000000000000000e+00
"Vn_Z:i" 1.741980643672362e-19
"Vn_Z:pwr" 0.000000000000000e+00
"n_Z" 1.199999494855326e+00
"n_D1" 0.000000000000000e+00
"n_SD" 1.200000000000000e+00
"Vn_D1:n" -7.517116117494919e-14
"Vn_D1:p" 7.517116117494919e-14
"Vn_GND:n" -2.548659859621248e-10
"Vn_GND:p" 2.548659859621248e-10
"Vn_SD:n" 5.105708382734734e-13
"Vn_SD:p" -5.105708382734734e-13
"Vn_VDD:n" 2.544855233536504e-10
"Vn_VDD:p" -2.544855233536504e-10
"Vn_Z:n" -1.741980643672362e-19
"Vn_Z:p" 1.741980643672362e-19
"time" 6.010000000000000e-09
"Vn_D1:v" 0.000000000000000e+00
"Vn_D1:i" 7.517141697762638e-14
"Vn_D1:pwr" 0.000000000000000e+00
"Vn_GND:v" 0.000000000000000e+00
"Vn_GND:i" 2.548659773630209e-10
"Vn_GND:pwr" 0.000000000000000e+00
"Vn_SD:v" 0.000000000000000e+00
"Vn_SD:i" -5.105697696587404e-13
"Vn_SD:pwr" -0.000000000000000e+00
"Vn_VDD:v" 1.200000000000000e+00
"Vn_VDD:i" -2.544855039734110e-10
"Vn_VDD:pwr" -3.053826047680932e-10
"Vn_Z:v" 0.000000000000000e+00
"Vn_Z:i" 1.673618742523965e-18
"Vn_Z:pwr" 0.000000000000000e+00
"n_Z" 1.199999494855360e+00
"n_D1" 0.000000000000000e+00
"n_SD" 1.200000000000000e+00
"Vn_D1:n" -7.517141697762638e-14
"Vn_D1:p" 7.517141697762638e-14
"Vn_GND:n" -2.548659773630209e-10
"Vn_GND:p" 2.548659773630209e-10
"Vn_SD:n" 5.105697696587404e-13
"Vn_SD:p" -5.105697696587404e-13
"Vn_VDD:n" 2.544855039734110e-10
"Vn_VDD:p" -2.544855039734110e-10
"Vn_Z:n" -1.673618742523965e-18
"Vn_Z:p" 1.673618742523965e-18
"time" 6.019999550200000e-09
"Vn_D1:v" 0.000000000000000e+00
"Vn_D1:i" 7.517108447117883e-14
"Vn_D1:pwr" 0.000000000000000e+00
"Vn_GND:v" 0.000000000000000e+00
"Vn_GND:i" 2.548659759118076e-10
"Vn_GND:pwr" 0.000000000000000e+00
"Vn_SD:v" 0.000000000000000e+00
"Vn_SD:i" -5.105703021230663e-13
"Vn_SD:pwr" -0.000000000000000e+00
"Vn_VDD:v" 1.200000000000000e+00
"Vn_VDD:i" -2.544855096759521e-10
"Vn_VDD:pwr" -3.053826116111425e-10
"Vn_Z:v" 0.000000000000000e+00
"Vn_Z:i" 1.481956322561954e-18
"Vn_Z:pwr" 0.000000000000000e+00
"n_Z" 1.199999494855363e+00
"n_D1" 0.000000000000000e+00
"n_SD" 1.200000000000000e+00
"Vn_D1:n" -7.517108447117883e-14
"Vn_D1:p" 7.517108447117883e-14
"Vn_GND:n" -2.548659759118076e-10
"Vn_GND:p" 2.548659759118076e-10
"Vn_SD:n" 5.105703021230663e-13
"Vn_SD:p" -5.105703021230663e-13
"Vn_VDD:n" 2.544855096759521e-10
"Vn_VDD:p" -2.544855096759521e-10
"Vn_Z:n" -1.481956322561954e-18
"Vn_Z:p" 1.481956322561954e-18
"time" 6.020000000000000e-09
"Vn_D1:v" 0.000000000000000e+00
"Vn_D1:i" -6.134735486744642e-07
"Vn_D1:pwr" -0.000000000000000e+00
"Vn_GND:v" 0.000000000000000e+00
"Vn_GND:i" 1.103289216775964e-07
"Vn_GND:pwr" 0.000000000000000e+00
"Vn_SD:v" 0.000000000000000e+00
"Vn_SD:i" 5.431343310417636e-11
"Vn_SD:pwr" 0.000000000000000e+00
"Vn_VDD:v" 1.200000000000000e+00
"Vn_VDD:i" 5.030897697767570e-07
"Vn_VDD:pwr" 6.037077237321084e-07
"Vn_Z:v" 0.000000000000000e+00
"Vn_Z:i" 4.898757298702452e-13
"Vn_Z:pwr" 0.000000000000000e+00
"n_Z" 1.199999494855406e+00
"n_D1" 2.456136039079392e-07
"n_SD" 1.200000000000000e+00
"Vn_D1:n" 6.134735486744642e-07
"Vn_D1:p" -6.134735486744642e-07
"Vn_GND:n" -1.103289216775964e-07
"Vn_GND:p" 1.103289216775964e-07
"Vn_SD:n" -5.431343310417636e-11
"Vn_SD:p" 5.431343310417636e-11
"Vn_VDD:n" -5.030897697767570e-07
"Vn_VDD:p" 5.030897697767570e-07
"Vn_Z:n" -4.898757298702452e-13
"Vn_Z:p" 4.898757298702452e-13
"time" 6.020000899600001e-09
"Vn_D1:v" 0.000000000000000e+00
"Vn_D1:i" -6.147226908318835e-07
"Vn_D1:pwr" -0.000000000000000e+00
"Vn_GND:v" 0.000000000000000e+00
"Vn_GND:i" 1.105449052339352e-07
"Vn_GND:pwr" 0.000000000000000e+00
"Vn_SD:v" 0.000000000000000e+00
"Vn_SD:i" 1.633535524051777e-10
"Vn_SD:pwr" 0.000000000000000e+00
"Vn_VDD:v" 1.200000000000000e+00
"Vn_VDD:i" 5.040110005206289e-07
"Vn_VDD:pwr" 6.048132006247546e-07
"Vn_Z:v" 0.000000000000000e+00
"Vn_Z:i" 3.376752455755752e-12
"Vn_Z:pwr" 0.000000000000000e+00
"n_Z" 1.199999494856014e+00
"n_D1" 7.368408117238176e-07
"n_SD" 1.200000000000000e+00
"Vn_D1:n" 6.147226908318835e-07
"Vn_D1:p" -6.147226908318835e-07
"Vn_GND:n" -1.105449052339352e-07
"Vn_GND:p" 1.105449052339352e-07
"Vn_SD:n" -1.633535524051777e-10
"Vn_SD:p" 1.633535524051777e-10
"Vn_VDD:n" -5.040110005206289e-07
"Vn_VDD:p" 5.040110005206289e-07
"Vn_Z:n" -3.376752455755752e-12
"Vn_Z:p" 3.376752455755752e-12
"time" 6.020002698800002e-09
"Vn_D1:v" 0.000000000000000e+00
"Vn_D1:i" -6.172051183168910e-07
"Vn_D1:pwr" -0.000000000000000e+00
"Vn_GND:v" 0.000000000000000e+00
"Vn_GND:i" 1.109743233052079e-07
"Vn_GND:pwr" 0.000000000000000e+00
"Vn_SD:v" 0.000000000000000e+00
"Vn_SD:i" 3.802212521511042e-10
"Vn_SD:pwr" 0.000000000000000e+00
"Vn_VDD:v" 1.200000000000000e+00
"Vn_VDD:i" 5.058376561732332e-07
"Vn_VDD:pwr" 6.070051874078798e-07
"Vn_Z:v" 0.000000000000000e+00
"Vn_Z:i" 1.286242493591935e-11
"Vn_Z:pwr" 0.000000000000000e+00
"n_Z" 1.199999494858936e+00
"n_D1" 1.719295227355574e-06
"n_SD" 1.200000000000000e+00
"Vn_D1:n" 6.172051183168910e-07
"Vn_D1:p" -6.172051183168910e-07
"Vn_GND:n" -1.109743233052079e-07
"Vn_GND:p" 1.109743233052079e-07
"Vn_SD:n" -3.802212521511042e-10
"Vn_SD:p" 3.802212521511042e-10
"Vn_VDD:n" -5.058376561732332e-07
"Vn_VDD:p" 5.058376561732332e-07
"Vn_Z:n" -1.286242493591935e-11
"Vn_Z:p" 1.286242493591935e-11
"time" 6.020006297200004e-09
"Vn_D1:v" 0.000000000000000e+00
"Vn_D1:i" -6.220761720543402e-07
"Vn_D1:pwr" -0.000000000000000e+00
"Vn_GND:v" 0.000000000000000e+00
"Vn_GND:i" 1.118180214124542e-07
"Vn_GND:pwr" 0.000000000000000e+00
"Vn_SD:v" 0.000000000000000e+00
"Vn_SD:i" 8.067460525831142e-10
"Vn_SD:pwr" 0.000000000000000e+00
"Vn_VDD:v" 1.200000000000000e+00
"Vn_VDD:i" 5.093984160965079e-07
"Vn_VDD:pwr" 6.112780993158094e-07
"Vn_Z:v" 0.000000000000000e+00
"Vn_Z:i" 5.293377798898461e-11
"Vn_Z:pwr" 0.000000000000000e+00
"n_Z" 1.199999494882612e+00
"n_D1" 3.684204058619088e-06
"n_SD" 1.200000000000000e+00
"Vn_D1:n" 6.220761720543402e-07
"Vn_D1:p" -6.220761720543402e-07
"Vn_GND:n" -1.118180214124542e-07
"Vn_GND:p" 1.118180214124542e-07
"Vn_SD:n" -8.067460525831142e-10
"Vn_SD:p" 8.067460525831142e-10
"Vn_VDD:n" -5.093984160965079e-07
"Vn_VDD:p" 5.093984160965079e-07
"Vn_Z:n" -5.293377798898461e-11
"Vn_Z:p" 5.293377798898461e-11
"time" 6.020013494000009e-09
"Vn_D1:v" 0.000000000000000e+00
"Vn_D1:i" -6.314573119582392e-07
"Vn_D1:pwr" -0.000000000000000e+00
"Vn_GND:v" 0.000000000000000e+00
"Vn_GND:i" 1.134462944390149e-07
"Vn_GND:pwr" 0.000000000000000e+00
"Vn_SD:v" 0.000000000000000e+00
"Vn_SD:i" 1.631584584167137e-09
"Vn_SD:pwr" 0.000000000000000e+00
"Vn_VDD:v" 1.200000000000000e+00
"Vn_VDD:i" 5.161725862999149e-07
"Vn_VDD:pwr" 6.194071035598979e-07
"Vn_Z:v" 0.000000000000000e+00
"Vn_Z:i" 2.067916438511982e-10
"Vn_Z:pwr" 0.000000000000000e+00
"n_Z" 1.199999495069531e+00
"n_D1" 7.614021721146115e-06
"n_SD" 1.200000000000000e+00
"Vn_D1:n" 6.314573119582392e-07
"Vn_D1:p" -6.314573119582392e-07
"Vn_GND:n" -1.134462944390149e-07
"Vn_GND:p" 1.134462944390149e-07
"Vn_SD:n" -1.631584584167137e-09
"Vn_SD:p" 1.631584584167137e-09
"Vn_VDD:n" -5.161725862999149e-07
"Vn_VDD:p" 5.161725862999149e-07
"Vn_Z:n" -2.067916438511982e-10
"Vn_Z:p" 2.067916438511982e-10
"time" 6.020027887600018e-09
"Vn_D1:v" 0.000000000000000e+00
"Vn_D1:i" -6.488790571241407e-07
"Vn_D1:pwr" -0.000000000000000e+00
"Vn_GND:v" 0.000000000000000e+00
"Vn_GND:i" 1.164778982648791e-07
"Vn_GND:pwr" 0.000000000000000e+00
"Vn_SD:v" 0.000000000000000e+00
"Vn_SD:i" 3.173577279453692e-09
"Vn_SD:pwr" 0.000000000000000e+00
"Vn_VDD:v" 1.200000000000000e+00
"Vn_VDD:i" 5.284879735848243e-07
"Vn_VDD:pwr" 6.341855683017891e-07
"Vn_Z:v" 0.000000000000000e+00
"Vn_Z:i" 7.395531368120835e-10
"Vn_Z:pwr" 0.000000000000000e+00
"n_Z" 1.199999496431662e+00
"n_D1" 1.547365704620017e-05
"n_SD" 1.200000000000000e+00
"Vn_D1:n" 6.488790571241407e-07
"Vn_D1:p" -6.488790571241407e-07
"Vn_GND:n" -1.164778982648791e-07
"Vn_GND:p" 1.164778982648791e-07
"Vn_SD:n" -3.173577279453692e-09
"Vn_SD:p" 3.173577279453692e-09
"Vn_VDD:n" -5.284879735848243e-07
"Vn_VDD:p" 5.284879735848243e-07
"Vn_Z:n" -7.395531368120835e-10
"Vn_Z:p" 7.395531368120835e-10
"time" 6.020056674800035e-09
"Vn_D1:v" 0.000000000000000e+00
"Vn_D1:i" -6.668232404072650e-07
"Vn_D1:pwr" -0.000000000000000e+00
"Vn_GND:v" 0.000000000000000e+00
"Vn_GND:i" 1.217828575003768e-07
"Vn_GND:pwr" 0.000000000000000e+00
"Vn_SD:v" 0.000000000000000e+00
"Vn_SD:i" 5.875615882258600e-09
"Vn_SD:pwr" 0.000000000000000e+00
"Vn_VDD:v" 1.200000000000000e+00
"Vn_VDD:i" 5.368235467071041e-07
"Vn_VDD:pwr" 6.441882560485249e-07
"Vn_Z:v" 0.000000000000000e+00
"Vn_Z:i" 2.341165383370680e-09
"Vn_Z:pwr" 0.000000000000000e+00
"n_Z" 1.199999505300188e+00
"n_D1" 3.119292769630828e-05
"n_SD" 1.200000000000000e+00
"Vn_D1:n" 6.668232404072650e-07
"Vn_D1:p" -6.668232404072650e-07
"Vn_GND:n" -1.217828575003768e-07
"Vn_GND:p" 1.217828575003768e-07
"Vn_SD:n" -5.875615882258600e-09
"Vn_SD:p" 5.875615882258600e-09
"Vn_VDD:n" -5.368235467071041e-07
"Vn_VDD:p" 5.368235467071041e-07
"Vn_Z:n" -2.341165383370680e-09
"Vn_Z:p" 2.341165383370680e-09
"time" 6.020114249200071e-09
"Vn_D1:v" 0.000000000000000e+00
"Vn_D1:i" -7.160308300330341e-07
"Vn_D1:pwr" -0.000000000000000e+00
"Vn_GND:v" 0.000000000000000e+00
"Vn_GND:i" 1.298909854959250e-07
"Vn_GND:pwr" 0.000000000000000e+00
"Vn_SD:v" 0.000000000000000e+00
"Vn_SD:i" 1.006539238367322e-08
"Vn_SD:pwr" 0.000000000000000e+00
"Vn_VDD:v" 1.200000000000000e+00
"Vn_VDD:i" 5.698512824291116e-07
"Vn_VDD:pwr" 6.838215389149339e-07
"Vn_Z:v" 0.000000000000000e+00
"Vn_Z:i" 6.223114758570206e-09
"Vn_Z:pwr" 0.000000000000000e+00
"n_Z" 1.199999554608517e+00
"n_D1" 6.263146899652450e-05
"n_SD" 1.200000000000000e+00
"Vn_D1:n" 7.160308300330341e-07
"Vn_D1:p" -7.160308300330341e-07
"Vn_GND:n" -1.298909854959250e-07
"Vn_GND:p" 1.298909854959250e-07
"Vn_SD:n" -1.006539238367322e-08
"Vn_SD:p" 1.006539238367322e-08
"Vn_VDD:n" -5.698512824291116e-07
"Vn_VDD:p" 5.698512824291116e-07
"Vn_Z:n" -6.223114758570206e-09
"Vn_Z:p" 6.223114758570206e-09
"time" 6.020229398000143e-09
"Vn_D1:v" 0.000000000000000e+00
"Vn_D1:i" -7.609124058928878e-07
"Vn_D1:pwr" -0.000000000000000e+00
"Vn_GND:v" 0.000000000000000e+00
"Vn_GND:i" 1.397074345880760e-07
"Vn_GND:pwr" 0.000000000000000e+00
"Vn_SD:v" 0.000000000000000e+00
"Vn_SD:i" 1.523687190574705e-08
"Vn_SD:pwr" 0.000000000000000e+00