HEADER
"PSFversion" "1.00"
"simulator" "spectre"
"version" "10.1.1.164.isr11"
"date" "3:01:57 PM, Fri Oct 17, 2014"
"design" "* Spectre Timing Acquisition"
"analysis type" "tran"
"analysis name" "transient1-019_transient1"
"analysis description" "Transient Analysis `transient1-019_transient1': time = (0 s -> 39 ns)"
"xVecSorted" "ascending"
"tolerance.relative" 0.00100000
"start" 0.00000
"outputstart" 0.00000
"stop" 3.90000e-08
"step" 3.90000e-11
"maxstep" 7.80000e-10
"ic" "all"
"useprevic" "no"
"skipdc" "no"
"reltol" 0.00100000
"abstol(V)" 1.00000e-06
"abstol(I)" 1.00000e-12
"temp" 25.0000
"tnom" 27.0000
"tempeffects" "all"
"errpreset" "moderate"
"method" "traponly"
"lteratio" 3.50000
"relref" "sigglobal"
"cmin" 0.00000
"gmin" 1.00000e-12
TYPE
"sweep" FLOAT DOUBLE PROP(
"key" "sweep"
)
"Tau" FLOAT DOUBLE PROP(
"units" "N*m"
"key" "node"
"tolerance" 1.00000e-06
)
"Alpha" FLOAT DOUBLE PROP(
"units" "rads/s^2"
"key" "node"
"tolerance" 1.00000e-06
)
"Omega" FLOAT DOUBLE PROP(
"units" "rads/s"
"key" "node"
"tolerance" 1.00000e-06
)
"Theta" FLOAT DOUBLE PROP(
"units" "rads"
"key" "node"
"tolerance" 1.00000e-06
)
"F" FLOAT DOUBLE PROP(
"units" "N"
"key" "node"
"tolerance" 1.00000e-06
)
"Imp" FLOAT DOUBLE PROP(
"units" "m/s^3"
"key" "node"
"tolerance" 1.00000e-06
)
"Acc" FLOAT DOUBLE PROP(
"units" "m/s^2"
"key" "node"
"tolerance" 1.00000e-06
)
"Vel" FLOAT DOUBLE PROP(
"units" "m/s"
"key" "node"
"tolerance" 1.00000e-06
)
"Pos" FLOAT DOUBLE PROP(
"units" "m"
"key" "node"
"tolerance" 1.00000e-06
)
"Phi" FLOAT DOUBLE PROP(
"units" "Wb"
"key" "node"
"tolerance" 1.00000e-09
)
"Q" FLOAT DOUBLE PROP(
"units" "coul"
"key" "node"
"tolerance" 1.00000e-14
)
"V" FLOAT DOUBLE PROP(
"units" "V"
"key" "node"
"tolerance" 1.00000e-06
)
"I" FLOAT DOUBLE PROP(
"units" "A"
"key" "branch"
"tolerance" 1.00000e-12
)
"MMF" FLOAT DOUBLE PROP(
"units" "A*turn"
"key" "node"
"tolerance" 1.00000e-12
)
"Wb" FLOAT DOUBLE PROP(
"units" "Wb"
"key" "node"
"tolerance" 1.00000e-09
)
"Temp" FLOAT DOUBLE PROP(
"units" "C"
"key" "node"
"tolerance" 0.000100000
)
"Pwr" FLOAT DOUBLE PROP(
"units" "W"
"key" "node"
"tolerance" 1.00000e-09
)
"U" FLOAT DOUBLE PROP(
"units" ""
"key" "node"
"tolerance" 1.00000e-06
)
"V/Sec" FLOAT DOUBLE PROP(
"units" "V/s"
"key" "node"
"tolerance" 0.000100000
)
"I/Sec" FLOAT DOUBLE PROP(
"units" "A/s"
"key" "node"
"tolerance" 1.00000e-06
)
"1/Sec" FLOAT DOUBLE PROP(
"units" "1/s"
"key" "node"
"tolerance" 0.000100000
)
"HOD" FLOAT DOUBLE PROP(
"units" ""
"key" "node"
"tolerance" 0.0100000
)
"A" FLOAT DOUBLE PROP(
"key" "inst"
)
"W" FLOAT DOUBLE PROP(
"key" "inst"
)
SWEEP
"time" "sweep" PROP(
"sweep_direction" 0
"units" "s"
"plot" 0
"grid" 1
)
TRACE
"Vn_D1:v" "V" PROP(
"units" "V"
)
"Vn_D1:i" "A" PROP(
"units" "A"
)
"Vn_D1:pwr" "W" PROP(
"units" "W"
)
"Vn_GND:v" "V" PROP(
"units" "V"
)
"Vn_GND:i" "A" PROP(
"units" "A"
)
"Vn_GND:pwr" "W" PROP(
"units" "W"
)
"Vn_SD:v" "V" PROP(
"units" "V"
)
"Vn_SD:i" "A" PROP(
"units" "A"
)
"Vn_SD:pwr" "W" PROP(
"units" "W"
)
"Vn_VDD:v" "V" PROP(
"units" "V"
)
"Vn_VDD:i" "A" PROP(
"units" "A"
)
"Vn_VDD:pwr" "W" PROP(
"units" "W"
)
"Vn_Z:v" "V" PROP(
"units" "V"
)
"Vn_Z:i" "A" PROP(
"units" "A"
)
"Vn_Z:pwr" "W" PROP(
"units" "W"
)
"n_Z" "V"
"n_D1" "V"
"n_SD" "V"
"Vn_D1:n" "I"
"Vn_D1:p" "I"
"Vn_GND:n" "I"
"Vn_GND:p" "I"
"Vn_SD:n" "I"
"Vn_SD:p" "I"
"Vn_VDD:n" "I"
"Vn_VDD:p" "I"
"Vn_Z:n" "I"
"Vn_Z:p" "I"
VALUE
"time" 0.000000000000000e+00
"Vn_D1:v" 0.000000000000000e+00
"Vn_D1:i" 7.517119452868265e-14
"Vn_D1:pwr" 0.000000000000000e+00
"Vn_GND:v" 0.000000000000000e+00
"Vn_GND:i" 2.548493107915353e-10
"Vn_GND:pwr" 0.000000000000000e+00
"Vn_SD:v" 0.000000000000000e+00
"Vn_SD:i" -5.105704018311278e-13
"Vn_SD:pwr" -0.000000000000000e+00
"Vn_VDD:v" 1.200000000000000e+00
"Vn_VDD:i" -2.544688430804968e-10
"Vn_VDD:pwr" -3.053626116965961e-10
"Vn_Z:v" 0.000000000000000e+00
"Vn_Z:i" 0.000000000000000e+00
"Vn_Z:pwr" 0.000000000000000e+00
"n_Z" 1.199999494927445e+00
"n_D1" 0.000000000000000e+00
"n_SD" 1.200000000000000e+00
"Vn_D1:n" -7.517119452868265e-14
"Vn_D1:p" 7.517119452868265e-14
"Vn_GND:n" -2.548493107915353e-10
"Vn_GND:p" 2.548493107915353e-10
"Vn_SD:n" 5.105704018311278e-13
"Vn_SD:p" -5.105704018311278e-13
"Vn_VDD:n" 2.544688430804968e-10
"Vn_VDD:p" -2.544688430804968e-10
"Vn_Z:n" 0.000000000000000e+00
"Vn_Z:p" 0.000000000000000e+00
"time" 3.900000000000000e-11
"Vn_D1:v" 0.000000000000000e+00
"Vn_D1:i" 7.485702108271884e-14
"Vn_D1:pwr" 0.000000000000000e+00
"Vn_GND:v" 0.000000000000000e+00
"Vn_GND:i" 2.548643158400960e-10
"Vn_GND:pwr" 0.000000000000000e+00
"Vn_SD:v" 0.000000000000000e+00
"Vn_SD:i" -5.109670674645373e-13
"Vn_SD:pwr" -0.000000000000000e+00
"Vn_VDD:v" 1.200000000000000e+00
"Vn_VDD:i" -2.544785794862714e-10
"Vn_VDD:pwr" -3.053742953835257e-10
"Vn_Z:v" 0.000000000000000e+00
"Vn_Z:i" -4.557803103589042e-15
"Vn_Z:pwr" -0.000000000000000e+00
"n_Z" 1.199999494889625e+00
"n_D1" 0.000000000000000e+00
"n_SD" 1.200000000000000e+00
"Vn_D1:n" -7.485702108271884e-14
"Vn_D1:p" 7.485702108271884e-14
"Vn_GND:n" -2.548643158400960e-10
"Vn_GND:p" 2.548643158400960e-10
"Vn_SD:n" 5.109670674645373e-13
"Vn_SD:p" -5.109670674645373e-13
"Vn_VDD:n" 2.544785794862714e-10
"Vn_VDD:p" -2.544785794862714e-10
"Vn_Z:n" 4.557803103589042e-15
"Vn_Z:p" -4.557803103589042e-15
"time" 1.170000000000000e-10
"Vn_D1:v" 0.000000000000000e+00
"Vn_D1:i" 7.504789757603170e-14
"Vn_D1:pwr" 0.000000000000000e+00
"Vn_GND:v" 0.000000000000000e+00
"Vn_GND:i" 2.548656934070721e-10
"Vn_GND:pwr" 0.000000000000000e+00
"Vn_SD:v" 0.000000000000000e+00
"Vn_SD:i" -5.107104281294714e-13
"Vn_SD:pwr" -0.000000000000000e+00
"Vn_VDD:v" 1.200000000000000e+00
"Vn_VDD:i" -2.544835061716804e-10
"Vn_VDD:pwr" -3.053802074060165e-10
"Vn_Z:v" 0.000000000000000e+00
"Vn_Z:i" -1.456207417847155e-15
"Vn_Z:pwr" -0.000000000000000e+00
"n_Z" 1.199999494865458e+00
"n_D1" 0.000000000000000e+00
"n_SD" 1.200000000000000e+00
"Vn_D1:n" -7.504789757603170e-14
"Vn_D1:p" 7.504789757603170e-14
"Vn_GND:n" -2.548656934070721e-10
"Vn_GND:p" 2.548656934070721e-10
"Vn_SD:n" 5.107104281294714e-13
"Vn_SD:p" -5.107104281294714e-13
"Vn_VDD:n" 2.544835061716804e-10
"Vn_VDD:p" -2.544835061716804e-10
"Vn_Z:n" 1.456207417847155e-15
"Vn_Z:p" -1.456207417847155e-15
"time" 2.730000000000000e-10
"Vn_D1:v" 0.000000000000000e+00
"Vn_D1:i" 7.521318295082714e-14
"Vn_D1:pwr" 0.000000000000000e+00
"Vn_GND:v" 0.000000000000000e+00
"Vn_GND:i" 2.548665329211237e-10
"Vn_GND:pwr" 0.000000000000000e+00
"Vn_SD:v" 0.000000000000000e+00
"Vn_SD:i" -5.105222212496021e-13
"Vn_SD:pwr" -0.000000000000000e+00
"Vn_VDD:v" 1.200000000000000e+00
"Vn_VDD:i" -2.544866712129126e-10
"Vn_VDD:pwr" -3.053840054554951e-10
"Vn_Z:v" 0.000000000000000e+00
"Vn_Z:i" 5.155032172769713e-16
"Vn_Z:pwr" 0.000000000000000e+00
"n_Z" 1.199999494849846e+00
"n_D1" 0.000000000000000e+00
"n_SD" 1.200000000000000e+00
"Vn_D1:n" -7.521318295082714e-14
"Vn_D1:p" 7.521318295082714e-14
"Vn_GND:n" -2.548665329211237e-10
"Vn_GND:p" 2.548665329211237e-10
"Vn_SD:n" 5.105222212496021e-13
"Vn_SD:p" -5.105222212496021e-13
"Vn_VDD:n" 2.544866712129126e-10
"Vn_VDD:p" -2.544866712129126e-10
"Vn_Z:n" -5.155032172769713e-16
"Vn_Z:p" 5.155032172769713e-16
"time" 5.850000000000002e-10
"Vn_D1:v" 0.000000000000000e+00
"Vn_D1:i" 7.514637826229872e-14
"Vn_D1:pwr" 0.000000000000000e+00
"Vn_GND:v" 0.000000000000000e+00
"Vn_GND:i" 2.548661559607790e-10
"Vn_GND:pwr" 0.000000000000000e+00
"Vn_SD:v" 0.000000000000000e+00
"Vn_SD:i" -5.105992077093567e-13
"Vn_SD:pwr" -0.000000000000000e+00
"Vn_VDD:v" 1.200000000000000e+00
"Vn_VDD:i" -2.544853203854300e-10
"Vn_VDD:pwr" -3.053823844625160e-10
"Vn_Z:v" 0.000000000000000e+00
"Vn_Z:i" -3.153027990821245e-16
"Vn_Z:pwr" -0.000000000000000e+00
"n_Z" 1.199999494856491e+00
"n_D1" 0.000000000000000e+00
"n_SD" 1.200000000000000e+00
"Vn_D1:n" -7.514637826229872e-14
"Vn_D1:p" 7.514637826229872e-14
"Vn_GND:n" -2.548661559607790e-10
"Vn_GND:p" 2.548661559607790e-10
"Vn_SD:n" 5.105992077093567e-13
"Vn_SD:p" -5.105992077093567e-13
"Vn_VDD:n" 2.544853203854300e-10
"Vn_VDD:p" -2.544853203854300e-10
"Vn_Z:n" 3.153027990821245e-16
"Vn_Z:p" -3.153027990821245e-16
"time" 1.209000000000000e-09
"Vn_D1:v" 0.000000000000000e+00
"Vn_D1:i" 7.519033780635607e-14
"Vn_D1:pwr" 0.000000000000000e+00
"Vn_GND:v" 0.000000000000000e+00
"Vn_GND:i" 2.548663638087198e-10
"Vn_GND:pwr" 0.000000000000000e+00
"Vn_SD:v" 0.000000000000000e+00
"Vn_SD:i" -5.105479836396443e-13
"Vn_SD:pwr" -0.000000000000000e+00
"Vn_VDD:v" 1.200000000000000e+00
"Vn_VDD:i" -2.544861894545092e-10
"Vn_VDD:pwr" -3.053834273454111e-10
"Vn_Z:v" 0.000000000000000e+00
"Vn_Z:i" 2.504605490224306e-16
"Vn_Z:pwr" 0.000000000000000e+00
"n_Z" 1.199999494852186e+00
"n_D1" 0.000000000000000e+00
"n_SD" 1.200000000000000e+00
"Vn_D1:n" -7.519033780635607e-14
"Vn_D1:p" 7.519033780635607e-14
"Vn_GND:n" -2.548663638087198e-10
"Vn_GND:p" 2.548663638087198e-10
"Vn_SD:n" 5.105479836396443e-13
"Vn_SD:p" -5.105479836396443e-13
"Vn_VDD:n" 2.544861894545092e-10
"Vn_VDD:p" -2.544861894545092e-10
"Vn_Z:n" -2.504605490224306e-16
"Vn_Z:p" 2.504605490224306e-16
"time" 1.989000000000000e-09
"Vn_D1:v" 0.000000000000000e+00
"Vn_D1:i" 7.515602566787354e-14
"Vn_D1:pwr" 0.000000000000000e+00
"Vn_GND:v" 0.000000000000000e+00
"Vn_GND:i" 2.548661220835791e-10
"Vn_GND:pwr" 0.000000000000000e+00
"Vn_SD:v" 0.000000000000000e+00
"Vn_SD:i" -5.105883173286180e-13
"Vn_SD:pwr" -0.000000000000000e+00
"Vn_VDD:v" 1.200000000000000e+00
"Vn_VDD:i" -2.544854233401704e-10
"Vn_VDD:pwr" -3.053825080082045e-10
"Vn_Z:v" 0.000000000000000e+00
"Vn_Z:i" -2.050850173117195e-16
"Vn_Z:pwr" -0.000000000000000e+00
"n_Z" 1.199999494855951e+00
"n_D1" 0.000000000000000e+00
"n_SD" 1.200000000000000e+00
"Vn_D1:n" -7.515602566787354e-14
"Vn_D1:p" 7.515602566787354e-14
"Vn_GND:n" -2.548661220835791e-10
"Vn_GND:p" 2.548661220835791e-10
"Vn_SD:n" 5.105883173286180e-13
"Vn_SD:p" -5.105883173286180e-13
"Vn_VDD:n" 2.544854233401704e-10
"Vn_VDD:p" -2.544854233401704e-10
"Vn_Z:n" 2.050850173117195e-16
"Vn_Z:p" -2.050850173117195e-16
"time" 2.769000000000001e-09
"Vn_D1:v" 0.000000000000000e+00
"Vn_D1:i" 7.518363065147337e-14
"Vn_D1:pwr" 0.000000000000000e+00
"Vn_GND:v" 0.000000000000000e+00
"Vn_GND:i" 2.548662387019893e-10
"Vn_GND:pwr" 0.000000000000000e+00
"Vn_SD:v" 0.000000000000000e+00
"Vn_SD:i" -5.105555429971684e-13
"Vn_SD:pwr" -0.000000000000000e+00
"Vn_VDD:v" 1.200000000000000e+00
"Vn_VDD:i" -2.544859620005921e-10
"Vn_VDD:pwr" -3.053831544007105e-10
"Vn_Z:v" 0.000000000000000e+00
"Vn_Z:i" 1.721554109712212e-16
"Vn_Z:pwr" 0.000000000000000e+00
"n_Z" 1.199999494853219e+00
"n_D1" 0.000000000000000e+00
"n_SD" 1.200000000000000e+00
"Vn_D1:n" -7.518363065147337e-14
"Vn_D1:p" 7.518363065147337e-14
"Vn_GND:n" -2.548662387019893e-10
"Vn_GND:p" 2.548662387019893e-10
"Vn_SD:n" 5.105555429971684e-13
"Vn_SD:p" -5.105555429971684e-13
"Vn_VDD:n" 2.544859620005921e-10
"Vn_VDD:p" -2.544859620005921e-10
"Vn_Z:n" -1.721554109712212e-16
"Vn_Z:p" 1.721554109712212e-16
"time" 3.000000000000000e-09
"Vn_D1:v" 0.000000000000000e+00
"Vn_D1:i" 7.516589896960228e-14
"Vn_D1:pwr" 0.000000000000000e+00
"Vn_GND:v" 0.000000000000000e+00
"Vn_GND:i" 2.548661126770950e-10
"Vn_GND:pwr" 0.000000000000000e+00
"Vn_SD:v" 0.000000000000000e+00
"Vn_SD:i" -5.105772237124001e-13
"Vn_SD:pwr" -0.000000000000000e+00
"Vn_VDD:v" 1.200000000000000e+00
"Vn_VDD:i" -2.544855526126751e-10
"Vn_VDD:pwr" -3.053826631352101e-10
"Vn_Z:v" 0.000000000000000e+00
"Vn_Z:i" -8.809760052135061e-17
"Vn_Z:pwr" -0.000000000000000e+00
"n_Z" 1.199999494855285e+00
"n_D1" 0.000000000000000e+00
"n_SD" 1.200000000000000e+00
"Vn_D1:n" -7.516589896960228e-14
"Vn_D1:p" 7.516589896960228e-14
"Vn_GND:n" -2.548661126770950e-10
"Vn_GND:p" 2.548661126770950e-10
"Vn_SD:n" 5.105772237124001e-13
"Vn_SD:p" -5.105772237124001e-13
"Vn_VDD:n" 2.544855526126751e-10
"Vn_VDD:p" -2.544855526126751e-10
"Vn_Z:n" 8.809760052135061e-17
"Vn_Z:p" -8.809760052135061e-17
"time" 3.010000000000000e-09
"Vn_D1:v" 0.000000000000000e+00
"Vn_D1:i" 7.516596989309186e-14
"Vn_D1:pwr" 0.000000000000000e+00
"Vn_GND:v" 0.000000000000000e+00
"Vn_GND:i" 2.548661217543239e-10
"Vn_GND:pwr" 0.000000000000000e+00
"Vn_SD:v" 0.000000000000000e+00
"Vn_SD:i" -5.105761746162528e-13
"Vn_SD:pwr" -0.000000000000000e+00
"Vn_VDD:v" 1.200000000000000e+00
"Vn_VDD:i" -2.544855764837066e-10
"Vn_VDD:pwr" -3.053826917804479e-10
"Vn_Z:v" 0.000000000000000e+00
"Vn_Z:i" -6.651890699956731e-17
"Vn_Z:pwr" -0.000000000000000e+00
"n_Z" 1.199999494855143e+00
"n_D1" 0.000000000000000e+00
"n_SD" 1.200000000000000e+00
"Vn_D1:n" -7.516596989309186e-14
"Vn_D1:p" 7.516596989309186e-14
"Vn_GND:n" -2.548661217543239e-10
"Vn_GND:p" 2.548661217543239e-10
"Vn_SD:n" 5.105761746162528e-13
"Vn_SD:p" -5.105761746162528e-13
"Vn_VDD:n" 2.544855764837066e-10
"Vn_VDD:p" -2.544855764837066e-10
"Vn_Z:n" 6.651890699956731e-17
"Vn_Z:p" -6.651890699956731e-17
"time" 3.030000000000000e-09
"Vn_D1:v" 0.000000000000000e+00
"Vn_D1:i" 7.516757493715786e-14
"Vn_D1:pwr" 0.000000000000000e+00
"Vn_GND:v" 0.000000000000000e+00
"Vn_GND:i" 2.548661308161134e-10
"Vn_GND:pwr" 0.000000000000000e+00
"Vn_SD:v" 0.000000000000000e+00
"Vn_SD:i" -5.105744275177238e-13
"Vn_SD:pwr" -0.000000000000000e+00
"Vn_VDD:v" 1.200000000000000e+00
"Vn_VDD:i" -2.544856126624206e-10
"Vn_VDD:pwr" -3.053827351949047e-10
"Vn_Z:v" 0.000000000000000e+00
"Vn_Z:i" -4.275462977736008e-17
"Vn_Z:pwr" -0.000000000000000e+00
"n_Z" 1.199999494854961e+00
"n_D1" 0.000000000000000e+00
"n_SD" 1.200000000000000e+00
"Vn_D1:n" -7.516757493715786e-14
"Vn_D1:p" 7.516757493715786e-14
"Vn_GND:n" -2.548661308161134e-10
"Vn_GND:p" 2.548661308161134e-10
"Vn_SD:n" 5.105744275177238e-13
"Vn_SD:p" -5.105744275177238e-13
"Vn_VDD:n" 2.544856126624206e-10
"Vn_VDD:p" -2.544856126624206e-10
"Vn_Z:n" 4.275462977736008e-17
"Vn_Z:p" -4.275462977736008e-17
"time" 3.070000000000001e-09
"Vn_D1:v" 0.000000000000000e+00
"Vn_D1:i" 7.517002744249597e-14
"Vn_D1:pwr" 0.000000000000000e+00
"Vn_GND:v" 0.000000000000000e+00
"Vn_GND:i" 2.548661412852606e-10
"Vn_GND:pwr" 0.000000000000000e+00
"Vn_SD:v" 0.000000000000000e+00
"Vn_SD:i" -5.105717357554056e-13
"Vn_SD:pwr" -0.000000000000000e+00
"Vn_VDD:v" 1.200000000000000e+00
"Vn_VDD:i" -2.544856606134402e-10
"Vn_VDD:pwr" -3.053827927361282e-10
"Vn_Z:v" 0.000000000000000e+00
"Vn_Z:i" -1.263582263136262e-17
"Vn_Z:pwr" -0.000000000000000e+00
"n_Z" 1.199999494854725e+00
"n_D1" 0.000000000000000e+00
"n_SD" 1.200000000000000e+00
"Vn_D1:n" -7.517002744249597e-14
"Vn_D1:p" 7.517002744249597e-14
"Vn_GND:n" -2.548661412852606e-10
"Vn_GND:p" 2.548661412852606e-10
"Vn_SD:n" 5.105717357554056e-13
"Vn_SD:p" -5.105717357554056e-13
"Vn_VDD:n" 2.544856606134402e-10
"Vn_VDD:p" -2.544856606134402e-10
"Vn_Z:n" 1.263582263136262e-17
"Vn_Z:p" -1.263582263136262e-17
"time" 3.150000000000003e-09
"Vn_D1:v" 0.000000000000000e+00
"Vn_D1:i" 7.517149990697845e-14
"Vn_D1:pwr" 0.000000000000000e+00
"Vn_GND:v" 0.000000000000000e+00
"Vn_GND:i" 2.548661433623861e-10
"Vn_GND:pwr" 0.000000000000000e+00
"Vn_SD:v" 0.000000000000000e+00
"Vn_SD:i" -5.105700168064474e-13
"Vn_SD:pwr" -0.000000000000000e+00
"Vn_VDD:v" 1.200000000000000e+00
"Vn_VDD:i" -2.544856725334052e-10
"Vn_VDD:pwr" -3.053828070400863e-10
"Vn_Z:v" 0.000000000000000e+00
"Vn_Z:i" 2.695704463318102e-18
"Vn_Z:pwr" 0.000000000000000e+00
"n_Z" 1.199999494854641e+00
"n_D1" 0.000000000000000e+00
"n_SD" 1.200000000000000e+00
"Vn_D1:n" -7.517149990697845e-14
"Vn_D1:p" 7.517149990697845e-14
"Vn_GND:n" -2.548661433623861e-10
"Vn_GND:p" 2.548661433623861e-10
"Vn_SD:n" 5.105700168064474e-13
"Vn_SD:p" -5.105700168064474e-13
"Vn_VDD:n" 2.544856725334052e-10
"Vn_VDD:p" -2.544856725334052e-10
"Vn_Z:n" -2.695704463318102e-18
"Vn_Z:p" 2.695704463318102e-18
"time" 3.310000000000005e-09
"Vn_D1:v" 0.000000000000000e+00
"Vn_D1:i" 7.517109314491000e-14
"Vn_D1:pwr" 0.000000000000000e+00
"Vn_GND:v" 0.000000000000000e+00
"Vn_GND:i" 2.548661327414682e-10
"Vn_GND:pwr" 0.000000000000000e+00
"Vn_SD:v" 0.000000000000000e+00
"Vn_SD:i" -5.105705562832389e-13
"Vn_SD:pwr" -0.000000000000000e+00
"Vn_VDD:v" 1.200000000000000e+00
"Vn_VDD:i" -2.544856717923132e-10
"Vn_VDD:pwr" -3.053828061507758e-10
"Vn_Z:v" 0.000000000000000e+00
"Vn_Z:i" 8.645994145268010e-20
"Vn_Z:pwr" 0.000000000000000e+00
"n_Z" 1.199999494854688e+00
"n_D1" 0.000000000000000e+00
"n_SD" 1.200000000000000e+00
"Vn_D1:n" -7.517109314491000e-14
"Vn_D1:p" 7.517109314491000e-14
"Vn_GND:n" -2.548661327414682e-10
"Vn_GND:p" 2.548661327414682e-10
"Vn_SD:n" 5.105705562832389e-13
"Vn_SD:p" -5.105705562832389e-13
"Vn_VDD:n" 2.544856717923132e-10
"Vn_VDD:p" -2.544856717923132e-10
"Vn_Z:n" -8.645994145268010e-20
"Vn_Z:p" 8.645994145268010e-20
"time" 3.630000000000011e-09
"Vn_D1:v" 0.000000000000000e+00
"Vn_D1:i" 7.517147928470043e-14
"Vn_D1:pwr" 0.000000000000000e+00
"Vn_GND:v" 0.000000000000000e+00
"Vn_GND:i" 2.548661151114573e-10
"Vn_GND:pwr" 0.000000000000000e+00
"Vn_SD:v" 0.000000000000000e+00
"Vn_SD:i" -5.105700163372239e-13
"Vn_SD:pwr" -0.000000000000000e+00
"Vn_VDD:v" 1.200000000000000e+00
"Vn_VDD:i" -2.544856460416431e-10
"Vn_VDD:pwr" -3.053827752499717e-10
"Vn_Z:v" 0.000000000000000e+00
"Vn_Z:i" 2.079939701586060e-18
"Vn_Z:pwr" 0.000000000000000e+00
"n_Z" 1.199999494854762e+00
"n_D1" 0.000000000000000e+00
"n_SD" 1.200000000000000e+00
"Vn_D1:n" -7.517147928470043e-14
"Vn_D1:p" 7.517147928470043e-14
"Vn_GND:n" -2.548661151114573e-10
"Vn_GND:p" 2.548661151114573e-10
"Vn_SD:n" 5.105700163372239e-13
"Vn_SD:p" -5.105700163372239e-13
"Vn_VDD:n" 2.544856460416431e-10
"Vn_VDD:p" -2.544856460416431e-10
"Vn_Z:n" -2.079939701586060e-18
"Vn_Z:p" 2.079939701586060e-18
"time" 4.270000000000022e-09
"Vn_D1:v" 0.000000000000000e+00
"Vn_D1:i" 7.517112787573831e-14
"Vn_D1:pwr" 0.000000000000000e+00
"Vn_GND:v" 0.000000000000000e+00
"Vn_GND:i" 2.548660770298807e-10
"Vn_GND:pwr" 0.000000000000000e+00
"Vn_SD:v" 0.000000000000000e+00
"Vn_SD:i" -5.105705335198513e-13
"Vn_SD:pwr" -0.000000000000000e+00
"Vn_VDD:v" 1.200000000000000e+00
"Vn_VDD:i" -2.544856114176926e-10
"Vn_VDD:pwr" -3.053827337012311e-10
"Vn_Z:v" 0.000000000000000e+00
"Vn_Z:i" 5.346715204753609e-19
"Vn_Z:pwr" 0.000000000000000e+00
"n_Z" 1.199999494854940e+00
"n_D1" 0.000000000000000e+00
"n_SD" 1.200000000000000e+00
"Vn_D1:n" -7.517112787573831e-14
"Vn_D1:p" 7.517112787573831e-14
"Vn_GND:n" -2.548660770298807e-10
"Vn_GND:p" 2.548660770298807e-10
"Vn_SD:n" 5.105705335198513e-13
"Vn_SD:p" -5.105705335198513e-13
"Vn_VDD:n" 2.544856114176926e-10
"Vn_VDD:p" -2.544856114176926e-10
"Vn_Z:n" -5.346715204753609e-19
"Vn_Z:p" 5.346715204753609e-19
"time" 5.050000000000022e-09
"Vn_D1:v" 0.000000000000000e+00
"Vn_D1:i" 7.517143591845079e-14
"Vn_D1:pwr" 0.000000000000000e+00
"Vn_GND:v" 0.000000000000000e+00
"Vn_GND:i" 2.548660324171815e-10
"Vn_GND:pwr" 0.000000000000000e+00
"Vn_SD:v" 0.000000000000000e+00
"Vn_SD:i" -5.105700546480475e-13
"Vn_SD:pwr" -0.000000000000000e+00
"Vn_VDD:v" 1.200000000000000e+00
"Vn_VDD:i" -2.544855651765566e-10
"Vn_VDD:pwr" -3.053826782118680e-10
"Vn_Z:v" 0.000000000000000e+00
"Vn_Z:i" 1.556352708104895e-18
"Vn_Z:pwr" 0.000000000000000e+00
"n_Z" 1.199999494855114e+00
"n_D1" 0.000000000000000e+00
"n_SD" 1.200000000000000e+00
"Vn_D1:n" -7.517143591845079e-14
"Vn_D1:p" 7.517143591845079e-14
"Vn_GND:n" -2.548660324171815e-10
"Vn_GND:p" 2.548660324171815e-10
"Vn_SD:n" 5.105700546480475e-13
"Vn_SD:p" -5.105700546480475e-13
"Vn_VDD:n" 2.544855651765566e-10
"Vn_VDD:p" -2.544855651765566e-10
"Vn_Z:n" -1.556352708104895e-18
"Vn_Z:p" 1.556352708104895e-18
"time" 5.830000000000022e-09
"Vn_D1:v" 0.000000000000000e+00
"Vn_D1:i" 7.517108368726358e-14
"Vn_D1:pwr" 0.000000000000000e+00
"Vn_GND:v" 0.000000000000000e+00
"Vn_GND:i" 2.548659862338717e-10
"Vn_GND:pwr" 0.000000000000000e+00
"Vn_SD:v" 0.000000000000000e+00
"Vn_SD:i" -5.105705872754652e-13
"Vn_SD:pwr" -0.000000000000000e+00
"Vn_VDD:v" 1.200000000000000e+00
"Vn_VDD:i" -2.544855149669842e-10
"Vn_VDD:pwr" -3.053826179603810e-10
"Vn_Z:v" 0.000000000000000e+00
"Vn_Z:i" 1.110675410451354e-18
"Vn_Z:pwr" 0.000000000000000e+00
"n_Z" 1.199999494855335e+00
"n_D1" 0.000000000000000e+00
"n_SD" 1.200000000000000e+00
"Vn_D1:n" -7.517108368726358e-14
"Vn_D1:p" 7.517108368726358e-14
"Vn_GND:n" -2.548659862338717e-10
"Vn_GND:p" 2.548659862338717e-10
"Vn_SD:n" 5.105705872754652e-13
"Vn_SD:p" -5.105705872754652e-13
"Vn_VDD:n" 2.544855149669842e-10
"Vn_VDD:p" -2.544855149669842e-10
"Vn_Z:n" -1.110675410451354e-18
"Vn_Z:p" 1.110675410451354e-18
"time" 6.010000000000000e-09
"Vn_D1:v" 0.000000000000000e+00
"Vn_D1:i" 7.517126313598785e-14
"Vn_D1:pwr" 0.000000000000000e+00
"Vn_GND:v" 0.000000000000000e+00
"Vn_GND:i" 2.548659760714409e-10
"Vn_GND:pwr" 0.000000000000000e+00
"Vn_SD:v" 0.000000000000000e+00
"Vn_SD:i" -5.105702795319744e-13
"Vn_SD:pwr" -0.000000000000000e+00
"Vn_VDD:v" 1.200000000000000e+00
"Vn_VDD:i" -2.544855156780712e-10
"Vn_VDD:pwr" -3.053826188136855e-10
"Vn_Z:v" 0.000000000000000e+00
"Vn_Z:i" -4.096290852077335e-19
"Vn_Z:pwr" -0.000000000000000e+00
"n_Z" 1.199999494855349e+00
"n_D1" 0.000000000000000e+00
"n_SD" 1.200000000000000e+00
"Vn_D1:n" -7.517126313598785e-14
"Vn_D1:p" 7.517126313598785e-14
"Vn_GND:n" -2.548659760714409e-10
"Vn_GND:p" 2.548659760714409e-10
"Vn_SD:n" 5.105702795319744e-13
"Vn_SD:p" -5.105702795319744e-13
"Vn_VDD:n" 2.544855156780712e-10
"Vn_VDD:p" -2.544855156780712e-10
"Vn_Z:n" 4.096290852077335e-19
"Vn_Z:p" -4.096290852077335e-19
"time" 6.019999550200000e-09
"Vn_D1:v" 0.000000000000000e+00
"Vn_D1:i" 7.517145579489507e-14
"Vn_D1:pwr" 0.000000000000000e+00
"Vn_GND:v" 0.000000000000000e+00
"Vn_GND:i" 2.548659763118005e-10
"Vn_GND:pwr" 0.000000000000000e+00
"Vn_SD:v" 0.000000000000000e+00
"Vn_SD:i" -5.105700931183492e-13
"Vn_SD:pwr" -0.000000000000000e+00
"Vn_VDD:v" 1.200000000000000e+00
"Vn_VDD:i" -2.544855114602360e-10
"Vn_VDD:pwr" -3.053826137522832e-10
"Vn_Z:v" 0.000000000000000e+00
"Vn_Z:i" 2.315088540608069e-18
"Vn_Z:pwr" 0.000000000000000e+00
"n_Z" 1.199999494855354e+00
"n_D1" 0.000000000000000e+00
"n_SD" 1.200000000000000e+00
"Vn_D1:n" -7.517145579489507e-14
"Vn_D1:p" 7.517145579489507e-14
"Vn_GND:n" -2.548659763118005e-10
"Vn_GND:p" 2.548659763118005e-10
"Vn_SD:n" 5.105700931183492e-13
"Vn_SD:p" -5.105700931183492e-13
"Vn_VDD:n" 2.544855114602360e-10
"Vn_VDD:p" -2.544855114602360e-10
"Vn_Z:n" -2.315088540608069e-18
"Vn_Z:p" 2.315088540608069e-18
"time" 6.020000000000000e-09
"Vn_D1:v" 0.000000000000000e+00
"Vn_D1:i" -6.134735487278069e-07
"Vn_D1:pwr" -0.000000000000000e+00
"Vn_GND:v" 0.000000000000000e+00
"Vn_GND:i" 1.103289217909776e-07
"Vn_GND:pwr" 0.000000000000000e+00
"Vn_SD:v" 0.000000000000000e+00
"Vn_SD:i" 5.431344293793723e-11
"Vn_SD:pwr" 0.000000000000000e+00
"Vn_VDD:v" 1.200000000000000e+00
"Vn_VDD:i" 5.030897686538447e-07
"Vn_VDD:pwr" 6.037077223846136e-07
"Vn_Z:v" 0.000000000000000e+00
"Vn_Z:i" 4.897855872493843e-13
"Vn_Z:pwr" 0.000000000000000e+00
"n_Z" 1.199999494855401e+00
"n_D1" 2.456136039079392e-07
"n_SD" 1.200000000000000e+00
"Vn_D1:n" 6.134735487278069e-07
"Vn_D1:p" -6.134735487278069e-07
"Vn_GND:n" -1.103289217909776e-07
"Vn_GND:p" 1.103289217909776e-07
"Vn_SD:n" -5.431344293793723e-11
"Vn_SD:p" 5.431344293793723e-11
"Vn_VDD:n" -5.030897686538447e-07
"Vn_VDD:p" 5.030897686538447e-07
"Vn_Z:n" -4.897855872493843e-13
"Vn_Z:p" 4.897855872493843e-13
"time" 6.020000899600001e-09
"Vn_D1:v" 0.000000000000000e+00
"Vn_D1:i" -6.147226904258212e-07
"Vn_D1:pwr" -0.000000000000000e+00
"Vn_GND:v" 0.000000000000000e+00
"Vn_GND:i" 1.105449063830143e-07
"Vn_GND:pwr" 0.000000000000000e+00
"Vn_SD:v" 0.000000000000000e+00
"Vn_SD:i" 1.633538401899436e-10
"Vn_SD:pwr" 0.000000000000000e+00
"Vn_VDD:v" 1.200000000000000e+00
"Vn_VDD:i" 5.040110015468844e-07
"Vn_VDD:pwr" 6.048132018562613e-07
"Vn_Z:v" 0.000000000000000e+00
"Vn_Z:i" 3.375374702279361e-12
"Vn_Z:pwr" 0.000000000000000e+00
"n_Z" 1.199999494856047e+00
"n_D1" 7.368408117238176e-07
"n_SD" 1.200000000000000e+00
"Vn_D1:n" 6.147226904258212e-07
"Vn_D1:p" -6.147226904258212e-07
"Vn_GND:n" -1.105449063830143e-07
"Vn_GND:p" 1.105449063830143e-07
"Vn_SD:n" -1.633538401899436e-10
"Vn_SD:p" 1.633538401899436e-10
"Vn_VDD:n" -5.040110015468844e-07
"Vn_VDD:p" 5.040110015468844e-07
"Vn_Z:n" -3.375374702279361e-12
"Vn_Z:p" 3.375374702279361e-12
"time" 6.020002698800002e-09
"Vn_D1:v" 0.000000000000000e+00
"Vn_D1:i" -6.172051188139639e-07
"Vn_D1:pwr" -0.000000000000000e+00
"Vn_GND:v" 0.000000000000000e+00
"Vn_GND:i" 1.109743246101626e-07
"Vn_GND:pwr" 0.000000000000000e+00
"Vn_SD:v" 0.000000000000000e+00
"Vn_SD:i" 3.802213688537366e-10
"Vn_SD:pwr" 0.000000000000000e+00
"Vn_VDD:v" 1.200000000000000e+00
"Vn_VDD:i" 5.058376613517792e-07
"Vn_VDD:pwr" 6.070051936221350e-07
"Vn_Z:v" 0.000000000000000e+00
"Vn_Z:i" 1.285485618072675e-11
"Vn_Z:pwr" 0.000000000000000e+00
"n_Z" 1.199999494859153e+00
"n_D1" 1.719295227355574e-06
"n_SD" 1.200000000000000e+00
"Vn_D1:n" 6.172051188139639e-07
"Vn_D1:p" -6.172051188139639e-07
"Vn_GND:n" -1.109743246101626e-07
"Vn_GND:p" 1.109743246101626e-07
"Vn_SD:n" -3.802213688537366e-10
"Vn_SD:p" 3.802213688537366e-10
"Vn_VDD:n" -5.058376613517792e-07
"Vn_VDD:p" 5.058376613517792e-07
"Vn_Z:n" -1.285485618072675e-11
"Vn_Z:p" 1.285485618072675e-11
"time" 6.020006297200004e-09
"Vn_D1:v" 0.000000000000000e+00
"Vn_D1:i" -6.220761714889240e-07
"Vn_D1:pwr" -0.000000000000000e+00
"Vn_GND:v" 0.000000000000000e+00
"Vn_GND:i" 1.118180406037539e-07
"Vn_GND:pwr" 0.000000000000000e+00
"Vn_SD:v" 0.000000000000000e+00
"Vn_SD:i" 8.067541189991671e-10
"Vn_SD:pwr" 0.000000000000000e+00
"Vn_VDD:v" 1.200000000000000e+00
"Vn_VDD:i" 5.093984463418954e-07
"Vn_VDD:pwr" 6.112781356102745e-07
"Vn_Z:v" 0.000000000000000e+00
"Vn_Z:i" 5.287693792467765e-11
"Vn_Z:pwr" 0.000000000000000e+00
"n_Z" 1.199999494884316e+00
"n_D1" 3.684204058619088e-06
"n_SD" 1.200000000000000e+00
"Vn_D1:n" 6.220761714889240e-07
"Vn_D1:p" -6.220761714889240e-07
"Vn_GND:n" -1.118180406037539e-07
"Vn_GND:p" 1.118180406037539e-07
"Vn_SD:n" -8.067541189991671e-10
"Vn_SD:p" 8.067541189991671e-10
"Vn_VDD:n" -5.093984463418954e-07
"Vn_VDD:p" 5.093984463418954e-07
"Vn_Z:n" -5.287693792467765e-11
"Vn_Z:p" 5.287693792467765e-11
"time" 6.020013494000009e-09
"Vn_D1:v" 0.000000000000000e+00
"Vn_D1:i" -6.314573125060232e-07
"Vn_D1:pwr" -0.000000000000000e+00
"Vn_GND:v" 0.000000000000000e+00
"Vn_GND:i" 1.134464310900613e-07
"Vn_GND:pwr" 0.000000000000000e+00
"Vn_SD:v" 0.000000000000000e+00
"Vn_SD:i" 1.631636256826260e-09
"Vn_SD:pwr" 0.000000000000000e+00
"Vn_VDD:v" 1.200000000000000e+00
"Vn_VDD:i" 5.161728287788164e-07
"Vn_VDD:pwr" 6.194073945345797e-07
"Vn_Z:v" 0.000000000000000e+00
"Vn_Z:i" 2.063601272063853e-10
"Vn_Z:pwr" 0.000000000000000e+00
"n_Z" 1.199999495082792e+00
"n_D1" 7.614021721146115e-06
"n_SD" 1.200000000000000e+00
"Vn_D1:n" 6.314573125060232e-07
"Vn_D1:p" -6.314573125060232e-07
"Vn_GND:n" -1.134464310900613e-07
"Vn_GND:p" 1.134464310900613e-07
"Vn_SD:n" -1.631636256826260e-09
"Vn_SD:p" 1.631636256826260e-09
"Vn_VDD:n" -5.161728287788164e-07
"Vn_VDD:p" 5.161728287788164e-07
"Vn_Z:n" -2.063601272063853e-10
"Vn_Z:p" 2.063601272063853e-10
"time" 6.020027887600018e-09
"Vn_D1:v" 0.000000000000000e+00
"Vn_D1:i" -6.488790561529247e-07
"Vn_D1:pwr" -0.000000000000000e+00
"Vn_GND:v" 0.000000000000000e+00
"Vn_GND:i" 1.164788288868671e-07
"Vn_GND:pwr" 0.000000000000000e+00
"Vn_SD:v" 0.000000000000000e+00
"Vn_SD:i" 3.173943556638806e-09
"Vn_SD:pwr" 0.000000000000000e+00
"Vn_VDD:v" 1.200000000000000e+00
"Vn_VDD:i" 5.284896418226423e-07
"Vn_VDD:pwr" 6.341875701871708e-07
"Vn_Z:v" 0.000000000000000e+00
"Vn_Z:i" 7.365882398347931e-10
"Vn_Z:pwr" 0.000000000000000e+00
"n_Z" 1.199999496526667e+00
"n_D1" 1.547365704620017e-05
"n_SD" 1.200000000000000e+00
"Vn_D1:n" 6.488790561529247e-07
"Vn_D1:p" -6.488790561529247e-07
"Vn_GND:n" -1.164788288868671e-07
"Vn_GND:p" 1.164788288868671e-07
"Vn_SD:n" -3.173943556638806e-09
"Vn_SD:p" 3.173943556638806e-09
"Vn_VDD:n" -5.284896418226423e-07
"Vn_VDD:p" 5.284896418226423e-07
"Vn_Z:n" -7.365882398347931e-10
"Vn_Z:p" 7.365882398347931e-10
"time" 6.020056674800035e-09
"Vn_D1:v" 0.000000000000000e+00
"Vn_D1:i" -6.668232339117735e-07
"Vn_D1:pwr" -0.000000000000000e+00
"Vn_GND:v" 0.000000000000000e+00
"Vn_GND:i" 1.217880881524780e-07
"Vn_GND:pwr" 0.000000000000000e+00
"Vn_SD:v" 0.000000000000000e+00
"Vn_SD:i" 5.877770042764487e-09
"Vn_SD:pwr" 0.000000000000000e+00
"Vn_VDD:v" 1.200000000000000e+00
"Vn_VDD:i" 5.368334225810631e-07
"Vn_VDD:pwr" 6.442001070972757e-07
"Vn_Z:v" 0.000000000000000e+00
"Vn_Z:i" 2.323896899091264e-09
"Vn_Z:pwr" 0.000000000000000e+00
"n_Z" 1.199999505899305e+00
"n_D1" 3.119292769630828e-05
"n_SD" 1.200000000000000e+00
"Vn_D1:n" 6.668232339117735e-07
"Vn_D1:p" -6.668232339117735e-07
"Vn_GND:n" -1.217880881524780e-07
"Vn_GND:p" 1.217880881524780e-07
"Vn_SD:n" -5.877770042764487e-09
"Vn_SD:p" 5.877770042764487e-09
"Vn_VDD:n" -5.368334225810631e-07
"Vn_VDD:p" 5.368334225810631e-07
"Vn_Z:n" -2.323896899091264e-09
"Vn_Z:p" 2.323896899091264e-09
"time" 6.020114249200071e-09
"Vn_D1:v" 0.000000000000000e+00
"Vn_D1:i" -7.160307909998447e-07
"Vn_D1:pwr" -0.000000000000000e+00
"Vn_GND:v" 0.000000000000000e+00
"Vn_GND:i" 1.299133063742331e-07
"Vn_GND:pwr" 0.000000000000000e+00
"Vn_SD:v" 0.000000000000000e+00
"Vn_SD:i" 1.007537157551458e-08
"Vn_SD:pwr" 0.000000000000000e+00
"Vn_VDD:v" 1.200000000000000e+00
"Vn_VDD:i" 5.698975119015713e-07
"Vn_VDD:pwr" 6.838770142818856e-07
"Vn_Z:v" 0.000000000000000e+00
"Vn_Z:i" 6.144547561029818e-09
"Vn_Z:pwr" 0.000000000000000e+00
"n_Z" 1.199999557767987e+00
"n_D1" 6.263146899652450e-05
"n_SD" 1.200000000000000e+00
"Vn_D1:n" 7.160307909998447e-07
"Vn_D1:p" -7.160307909998447e-07
"Vn_GND:n" -1.299133063742331e-07
"Vn_GND:p" 1.299133063742331e-07
"Vn_SD:n" -1.007537157551458e-08
"Vn_SD:p" 1.007537157551458e-08
"Vn_VDD:n" -5.698975119015713e-07
"Vn_VDD:p" 5.698975119015713e-07
"Vn_Z:n" -6.144547561029818e-09
"Vn_Z:p" 6.144547561029818e-09
"time" 6.020229398000143e-09
"Vn_D1:v" 0.000000000000000e+00
"Vn_D1:i" -7.609122870282652e-07
"Vn_D1:pwr" -0.000000000000000e+00
"Vn_GND:v" 0.000000000000000e+00
"Vn_GND:i" 1.397729775527734e-07
"Vn_GND:pwr" 0.000000000000000e+00
"Vn_SD:v" 0.000000000000000e+00
"Vn_SD:i" 1.527006793636861e-08
"Vn_SD:pwr" 0.000000000000000e+00