HEADER
"PSFversion" "1.00"
"simulator" "spectre"
"version" "10.1.1.164.isr11"
"date" "3:01:57 PM, Fri Oct 17, 2014"
"design" "* Spectre Timing Acquisition"
"analysis type" "tran"
"analysis name" "transient1-026_transient1"
"analysis description" "Transient Analysis `transient1-026_transient1': time = (0 s -> 39 ns)"
"xVecSorted" "ascending"
"tolerance.relative" 0.00100000
"start" 0.00000
"outputstart" 0.00000
"stop" 3.90000e-08
"step" 3.90000e-11
"maxstep" 7.80000e-10
"ic" "all"
"useprevic" "no"
"skipdc" "no"
"reltol" 0.00100000
"abstol(V)" 1.00000e-06
"abstol(I)" 1.00000e-12
"temp" 25.0000
"tnom" 27.0000
"tempeffects" "all"
"errpreset" "moderate"
"method" "traponly"
"lteratio" 3.50000
"relref" "sigglobal"
"cmin" 0.00000
"gmin" 1.00000e-12
TYPE
"sweep" FLOAT DOUBLE PROP(
"key" "sweep"
)
"Tau" FLOAT DOUBLE PROP(
"units" "N*m"
"key" "node"
"tolerance" 1.00000e-06
)
"Alpha" FLOAT DOUBLE PROP(
"units" "rads/s^2"
"key" "node"
"tolerance" 1.00000e-06
)
"Omega" FLOAT DOUBLE PROP(
"units" "rads/s"
"key" "node"
"tolerance" 1.00000e-06
)
"Theta" FLOAT DOUBLE PROP(
"units" "rads"
"key" "node"
"tolerance" 1.00000e-06
)
"F" FLOAT DOUBLE PROP(
"units" "N"
"key" "node"
"tolerance" 1.00000e-06
)
"Imp" FLOAT DOUBLE PROP(
"units" "m/s^3"
"key" "node"
"tolerance" 1.00000e-06
)
"Acc" FLOAT DOUBLE PROP(
"units" "m/s^2"
"key" "node"
"tolerance" 1.00000e-06
)
"Vel" FLOAT DOUBLE PROP(
"units" "m/s"
"key" "node"
"tolerance" 1.00000e-06
)
"Pos" FLOAT DOUBLE PROP(
"units" "m"
"key" "node"
"tolerance" 1.00000e-06
)
"Phi" FLOAT DOUBLE PROP(
"units" "Wb"
"key" "node"
"tolerance" 1.00000e-09
)
"Q" FLOAT DOUBLE PROP(
"units" "coul"
"key" "node"
"tolerance" 1.00000e-14
)
"V" FLOAT DOUBLE PROP(
"units" "V"
"key" "node"
"tolerance" 1.00000e-06
)
"I" FLOAT DOUBLE PROP(
"units" "A"
"key" "branch"
"tolerance" 1.00000e-12
)
"MMF" FLOAT DOUBLE PROP(
"units" "A*turn"
"key" "node"
"tolerance" 1.00000e-12
)
"Wb" FLOAT DOUBLE PROP(
"units" "Wb"
"key" "node"
"tolerance" 1.00000e-09
)
"Temp" FLOAT DOUBLE PROP(
"units" "C"
"key" "node"
"tolerance" 0.000100000
)
"Pwr" FLOAT DOUBLE PROP(
"units" "W"
"key" "node"
"tolerance" 1.00000e-09
)
"U" FLOAT DOUBLE PROP(
"units" ""
"key" "node"
"tolerance" 1.00000e-06
)
"V/Sec" FLOAT DOUBLE PROP(
"units" "V/s"
"key" "node"
"tolerance" 0.000100000
)
"I/Sec" FLOAT DOUBLE PROP(
"units" "A/s"
"key" "node"
"tolerance" 1.00000e-06
)
"1/Sec" FLOAT DOUBLE PROP(
"units" "1/s"
"key" "node"
"tolerance" 0.000100000
)
"HOD" FLOAT DOUBLE PROP(
"units" ""
"key" "node"
"tolerance" 0.0100000
)
"A" FLOAT DOUBLE PROP(
"key" "inst"
)
"W" FLOAT DOUBLE PROP(
"key" "inst"
)
SWEEP
"time" "sweep" PROP(
"sweep_direction" 0
"units" "s"
"plot" 0
"grid" 1
)
TRACE
"Vn_D1:v" "V" PROP(
"units" "V"
)
"Vn_D1:i" "A" PROP(
"units" "A"
)
"Vn_D1:pwr" "W" PROP(
"units" "W"
)
"Vn_GND:v" "V" PROP(
"units" "V"
)
"Vn_GND:i" "A" PROP(
"units" "A"
)
"Vn_GND:pwr" "W" PROP(
"units" "W"
)
"Vn_SD:v" "V" PROP(
"units" "V"
)
"Vn_SD:i" "A" PROP(
"units" "A"
)
"Vn_SD:pwr" "W" PROP(
"units" "W"
)
"Vn_VDD:v" "V" PROP(
"units" "V"
)
"Vn_VDD:i" "A" PROP(
"units" "A"
)
"Vn_VDD:pwr" "W" PROP(
"units" "W"
)
"Vn_Z:v" "V" PROP(
"units" "V"
)
"Vn_Z:i" "A" PROP(
"units" "A"
)
"Vn_Z:pwr" "W" PROP(
"units" "W"
)
"n_Z" "V"
"n_D1" "V"
"n_SD" "V"
"Vn_D1:n" "I"
"Vn_D1:p" "I"
"Vn_GND:n" "I"
"Vn_GND:p" "I"
"Vn_SD:n" "I"
"Vn_SD:p" "I"
"Vn_VDD:n" "I"
"Vn_VDD:p" "I"
"Vn_Z:n" "I"
"Vn_Z:p" "I"
VALUE
"time" 0.000000000000000e+00
"Vn_D1:v" 0.000000000000000e+00
"Vn_D1:i" 7.517119452868247e-14
"Vn_D1:pwr" 0.000000000000000e+00
"Vn_GND:v" 0.000000000000000e+00
"Vn_GND:i" 2.548493107913156e-10
"Vn_GND:pwr" 0.000000000000000e+00
"Vn_SD:v" 0.000000000000000e+00
"Vn_SD:i" -5.105704018311280e-13
"Vn_SD:pwr" -0.000000000000000e+00
"Vn_VDD:v" 1.200000000000000e+00
"Vn_VDD:i" -2.544688430803594e-10
"Vn_VDD:pwr" -3.053626116964313e-10
"Vn_Z:v" 0.000000000000000e+00
"Vn_Z:i" 0.000000000000000e+00
"Vn_Z:pwr" 0.000000000000000e+00
"n_Z" 1.199999494927445e+00
"n_D1" 0.000000000000000e+00
"n_SD" 1.200000000000000e+00
"Vn_D1:n" -7.517119452868247e-14
"Vn_D1:p" 7.517119452868247e-14
"Vn_GND:n" -2.548493107913156e-10
"Vn_GND:p" 2.548493107913156e-10
"Vn_SD:n" 5.105704018311280e-13
"Vn_SD:p" -5.105704018311280e-13
"Vn_VDD:n" 2.544688430803594e-10
"Vn_VDD:p" -2.544688430803594e-10
"Vn_Z:n" 0.000000000000000e+00
"Vn_Z:p" 0.000000000000000e+00
"time" 3.900000000000000e-11
"Vn_D1:v" 0.000000000000000e+00
"Vn_D1:i" 7.485248223735339e-14
"Vn_D1:pwr" 0.000000000000000e+00
"Vn_GND:v" 0.000000000000000e+00
"Vn_GND:i" 2.548642916871802e-10
"Vn_GND:pwr" 0.000000000000000e+00
"Vn_SD:v" 0.000000000000000e+00
"Vn_SD:i" -5.109738987742872e-13
"Vn_SD:pwr" -0.000000000000000e+00
"Vn_VDD:v" 1.200000000000000e+00
"Vn_VDD:i" -2.544787735342873e-10
"Vn_VDD:pwr" -3.053745282411447e-10
"Vn_Z:v" 0.000000000000000e+00
"Vn_Z:i" -4.328232016804721e-15
"Vn_Z:pwr" -0.000000000000000e+00
"n_Z" 1.199999494889081e+00
"n_D1" 0.000000000000000e+00
"n_SD" 1.200000000000000e+00
"Vn_D1:n" -7.485248223735339e-14
"Vn_D1:p" 7.485248223735339e-14
"Vn_GND:n" -2.548642916871802e-10
"Vn_GND:p" 2.548642916871802e-10
"Vn_SD:n" 5.109738987742872e-13
"Vn_SD:p" -5.109738987742872e-13
"Vn_VDD:n" 2.544787735342873e-10
"Vn_VDD:p" -2.544787735342873e-10
"Vn_Z:n" 4.328232016804721e-15
"Vn_Z:p" -4.328232016804721e-15
"time" 1.170000000000000e-10
"Vn_D1:v" 0.000000000000000e+00
"Vn_D1:i" 7.504830891238386e-14
"Vn_D1:pwr" 0.000000000000000e+00
"Vn_GND:v" 0.000000000000000e+00
"Vn_GND:i" 2.548656960044271e-10
"Vn_GND:pwr" 0.000000000000000e+00
"Vn_SD:v" 0.000000000000000e+00
"Vn_SD:i" -5.107094162923984e-13
"Vn_SD:pwr" -0.000000000000000e+00
"Vn_VDD:v" 1.200000000000000e+00
"Vn_VDD:i" -2.544836115615020e-10
"Vn_VDD:pwr" -3.053803338738024e-10
"Vn_Z:v" 0.000000000000000e+00
"Vn_Z:i" -1.354833297362749e-15
"Vn_Z:pwr" -0.000000000000000e+00
"n_Z" 1.199999494865063e+00
"n_D1" 0.000000000000000e+00
"n_SD" 1.200000000000000e+00
"Vn_D1:n" -7.504830891238386e-14
"Vn_D1:p" 7.504830891238386e-14
"Vn_GND:n" -2.548656960044271e-10
"Vn_GND:p" 2.548656960044271e-10
"Vn_SD:n" 5.107094162923984e-13
"Vn_SD:p" -5.107094162923984e-13
"Vn_VDD:n" 2.544836115615020e-10
"Vn_VDD:p" -2.544836115615020e-10
"Vn_Z:n" 1.354833297362749e-15
"Vn_Z:p" -1.354833297362749e-15
"time" 2.730000000000000e-10
"Vn_D1:v" 0.000000000000000e+00
"Vn_D1:i" 7.521455808497732e-14
"Vn_D1:pwr" 0.000000000000000e+00
"Vn_GND:v" 0.000000000000000e+00
"Vn_GND:i" 2.548665394652468e-10
"Vn_GND:pwr" 0.000000000000000e+00
"Vn_SD:v" 0.000000000000000e+00
"Vn_SD:i" -5.105207949692989e-13
"Vn_SD:pwr" -0.000000000000000e+00
"Vn_VDD:v" 1.200000000000000e+00
"Vn_VDD:i" -2.544866611771607e-10
"Vn_VDD:pwr" -3.053839934125928e-10
"Vn_Z:v" 0.000000000000000e+00
"Vn_Z:i" 4.963732865783939e-16
"Vn_Z:pwr" 0.000000000000000e+00
"n_Z" 1.199999494849845e+00
"n_D1" 0.000000000000000e+00
"n_SD" 1.200000000000000e+00
"Vn_D1:n" -7.521455808497732e-14
"Vn_D1:p" 7.521455808497732e-14
"Vn_GND:n" -2.548665394652468e-10
"Vn_GND:p" 2.548665394652468e-10
"Vn_SD:n" 5.105207949692989e-13
"Vn_SD:p" -5.105207949692989e-13
"Vn_VDD:n" 2.544866611771607e-10
"Vn_VDD:p" -2.544866611771607e-10
"Vn_Z:n" -4.963732865783939e-16
"Vn_Z:p" 4.963732865783939e-16
"time" 5.850000000000002e-10
"Vn_D1:v" 0.000000000000000e+00
"Vn_D1:i" 7.514533543757909e-14
"Vn_D1:pwr" 0.000000000000000e+00
"Vn_GND:v" 0.000000000000000e+00
"Vn_GND:i" 2.548661512857658e-10
"Vn_GND:pwr" 0.000000000000000e+00
"Vn_SD:v" 0.000000000000000e+00
"Vn_SD:i" -5.106003214234733e-13
"Vn_SD:pwr" -0.000000000000000e+00
"Vn_VDD:v" 1.200000000000000e+00
"Vn_VDD:i" -2.544853180720826e-10
"Vn_VDD:pwr" -3.053823816864990e-10
"Vn_Z:v" 0.000000000000000e+00
"Vn_Z:i" -3.077377005440010e-16
"Vn_Z:pwr" -0.000000000000000e+00
"n_Z" 1.199999494856533e+00
"n_D1" 0.000000000000000e+00
"n_SD" 1.200000000000000e+00
"Vn_D1:n" -7.514533543757909e-14
"Vn_D1:p" 7.514533543757909e-14
"Vn_GND:n" -2.548661512857658e-10
"Vn_GND:p" 2.548661512857658e-10
"Vn_SD:n" 5.106003214234733e-13
"Vn_SD:p" -5.106003214234733e-13
"Vn_VDD:n" 2.544853180720826e-10
"Vn_VDD:p" -2.544853180720826e-10
"Vn_Z:n" 3.077377005440010e-16
"Vn_Z:p" -3.077377005440010e-16
"time" 1.209000000000000e-09
"Vn_D1:v" 0.000000000000000e+00
"Vn_D1:i" 7.519144644812065e-14
"Vn_D1:pwr" 0.000000000000000e+00
"Vn_GND:v" 0.000000000000000e+00
"Vn_GND:i" 2.548663690944359e-10
"Vn_GND:pwr" 0.000000000000000e+00
"Vn_SD:v" 0.000000000000000e+00
"Vn_SD:i" -5.105467599598766e-13
"Vn_SD:pwr" -0.000000000000000e+00
"Vn_VDD:v" 1.200000000000000e+00
"Vn_VDD:i" -2.544861887332155e-10
"Vn_VDD:pwr" -3.053834264798586e-10
"Vn_Z:v" 0.000000000000000e+00
"Vn_Z:i" 2.459688028375001e-16
"Vn_Z:pwr" 0.000000000000000e+00
"n_Z" 1.199999494852153e+00
"n_D1" 0.000000000000000e+00
"n_SD" 1.200000000000000e+00
"Vn_D1:n" -7.519144644812065e-14
"Vn_D1:p" 7.519144644812065e-14
"Vn_GND:n" -2.548663690944359e-10
"Vn_GND:p" 2.548663690944359e-10
"Vn_SD:n" 5.105467599598766e-13
"Vn_SD:p" -5.105467599598766e-13
"Vn_VDD:n" 2.544861887332155e-10
"Vn_VDD:p" -2.544861887332155e-10
"Vn_Z:n" -2.459688028375001e-16
"Vn_Z:p" 2.459688028375001e-16
"time" 1.989000000000000e-09
"Vn_D1:v" 0.000000000000000e+00
"Vn_D1:i" 7.515483975131085e-14
"Vn_D1:pwr" 0.000000000000000e+00
"Vn_GND:v" 0.000000000000000e+00
"Vn_GND:i" 2.548661161235344e-10
"Vn_GND:pwr" 0.000000000000000e+00
"Vn_SD:v" 0.000000000000000e+00
"Vn_SD:i" -5.105896558172630e-13
"Vn_SD:pwr" -0.000000000000000e+00
"Vn_VDD:v" 1.200000000000000e+00
"Vn_VDD:i" -2.544854130984151e-10
"Vn_VDD:pwr" -3.053824957180981e-10
"Vn_Z:v" 0.000000000000000e+00
"Vn_Z:i" -2.025152283956329e-16
"Vn_Z:pwr" -0.000000000000000e+00
"n_Z" 1.199999494856005e+00
"n_D1" 0.000000000000000e+00
"n_SD" 1.200000000000000e+00
"Vn_D1:n" -7.515483975131085e-14
"Vn_D1:p" 7.515483975131085e-14
"Vn_GND:n" -2.548661161235344e-10
"Vn_GND:p" 2.548661161235344e-10
"Vn_SD:n" 5.105896558172630e-13
"Vn_SD:p" -5.105896558172630e-13
"Vn_VDD:n" 2.544854130984151e-10
"Vn_VDD:p" -2.544854130984151e-10
"Vn_Z:n" 2.025152283956329e-16
"Vn_Z:p" -2.025152283956329e-16
"time" 2.769000000000001e-09
"Vn_D1:v" 0.000000000000000e+00
"Vn_D1:i" 7.518460886624625e-14
"Vn_D1:pwr" 0.000000000000000e+00
"Vn_GND:v" 0.000000000000000e+00
"Vn_GND:i" 2.548662435259376e-10
"Vn_GND:pwr" 0.000000000000000e+00
"Vn_SD:v" 0.000000000000000e+00
"Vn_SD:i" -5.105544512610371e-13
"Vn_SD:pwr" -0.000000000000000e+00
"Vn_VDD:v" 1.200000000000000e+00
"Vn_VDD:i" -2.544859772596017e-10
"Vn_VDD:pwr" -3.053831727115220e-10
"Vn_Z:v" 0.000000000000000e+00
"Vn_Z:i" 1.704871929157181e-16
"Vn_Z:pwr" 0.000000000000000e+00
"n_Z" 1.199999494853166e+00
"n_D1" 0.000000000000000e+00
"n_SD" 1.200000000000000e+00
"Vn_D1:n" -7.518460886624625e-14
"Vn_D1:p" 7.518460886624625e-14
"Vn_GND:n" -2.548662435259376e-10
"Vn_GND:p" 2.548662435259376e-10
"Vn_SD:n" 5.105544512610371e-13
"Vn_SD:p" -5.105544512610371e-13
"Vn_VDD:n" 2.544859772596017e-10
"Vn_VDD:p" -2.544859772596017e-10
"Vn_Z:n" -1.704871929157181e-16
"Vn_Z:p" 1.704871929157181e-16
"time" 3.000000000000000e-09
"Vn_D1:v" 0.000000000000000e+00
"Vn_D1:i" 7.516532926137831e-14
"Vn_D1:pwr" 0.000000000000000e+00
"Vn_GND:v" 0.000000000000000e+00
"Vn_GND:i" 2.548661099797673e-10
"Vn_GND:pwr" 0.000000000000000e+00
"Vn_SD:v" 0.000000000000000e+00
"Vn_SD:i" -5.105777974257546e-13
"Vn_SD:pwr" -0.000000000000000e+00
"Vn_VDD:v" 1.200000000000000e+00
"Vn_VDD:i" -2.544855391783738e-10
"Vn_VDD:pwr" -3.053826470140485e-10
"Vn_Z:v" 0.000000000000000e+00
"Vn_Z:i" -8.858148828911174e-17
"Vn_Z:pwr" -0.000000000000000e+00
"n_Z" 1.199999494855316e+00
"n_D1" 0.000000000000000e+00
"n_SD" 1.200000000000000e+00
"Vn_D1:n" -7.516532926137831e-14
"Vn_D1:p" 7.516532926137831e-14
"Vn_GND:n" -2.548661099797673e-10
"Vn_GND:p" 2.548661099797673e-10
"Vn_SD:n" 5.105777974257546e-13
"Vn_SD:p" -5.105777974257546e-13
"Vn_VDD:n" 2.544855391783738e-10
"Vn_VDD:p" -2.544855391783738e-10
"Vn_Z:n" 8.858148828911174e-17
"Vn_Z:p" -8.858148828911174e-17
"time" 3.010000000000000e-09
"Vn_D1:v" 0.000000000000000e+00
"Vn_D1:i" 7.516560479710003e-14
"Vn_D1:pwr" 0.000000000000000e+00
"Vn_GND:v" 0.000000000000000e+00
"Vn_GND:i" 2.548661195238881e-10
"Vn_GND:pwr" 0.000000000000000e+00
"Vn_SD:v" 0.000000000000000e+00
"Vn_SD:i" -5.105769561789276e-13
"Vn_SD:pwr" -0.000000000000000e+00
"Vn_VDD:v" 1.200000000000000e+00
"Vn_VDD:i" -2.544855729613045e-10
"Vn_VDD:pwr" -3.053826875535653e-10
"Vn_Z:v" 0.000000000000000e+00
"Vn_Z:i" -6.669015502739191e-17
"Vn_Z:pwr" -0.000000000000000e+00
"n_Z" 1.199999494855164e+00
"n_D1" 0.000000000000000e+00
"n_SD" 1.200000000000000e+00
"Vn_D1:n" -7.516560479710003e-14
"Vn_D1:p" 7.516560479710003e-14
"Vn_GND:n" -2.548661195238881e-10
"Vn_GND:p" 2.548661195238881e-10
"Vn_SD:n" 5.105769561789276e-13
"Vn_SD:p" -5.105769561789276e-13
"Vn_VDD:n" 2.544855729613045e-10
"Vn_VDD:p" -2.544855729613045e-10
"Vn_Z:n" 6.669015502739191e-17
"Vn_Z:p" -6.669015502739191e-17
"time" 3.030000000000000e-09
"Vn_D1:v" 0.000000000000000e+00
"Vn_D1:i" 7.516729929960904e-14
"Vn_D1:pwr" 0.000000000000000e+00
"Vn_GND:v" 0.000000000000000e+00
"Vn_GND:i" 2.548661296820545e-10
"Vn_GND:pwr" 0.000000000000000e+00
"Vn_SD:v" 0.000000000000000e+00
"Vn_SD:i" -5.105747509096339e-13
"Vn_SD:pwr" -0.000000000000000e+00
"Vn_VDD:v" 1.200000000000000e+00
"Vn_VDD:i" -2.544856112887426e-10
"Vn_VDD:pwr" -3.053827335464912e-10
"Vn_Z:v" 0.000000000000000e+00
"Vn_Z:i" -4.240548956883339e-17
"Vn_Z:pwr" -0.000000000000000e+00
"n_Z" 1.199999494854972e+00
"n_D1" 0.000000000000000e+00
"n_SD" 1.200000000000000e+00
"Vn_D1:n" -7.516729929960904e-14
"Vn_D1:p" 7.516729929960904e-14
"Vn_GND:n" -2.548661296820545e-10
"Vn_GND:p" 2.548661296820545e-10
"Vn_SD:n" 5.105747509096339e-13
"Vn_SD:p" -5.105747509096339e-13
"Vn_VDD:n" 2.544856112887426e-10
"Vn_VDD:p" -2.544856112887426e-10
"Vn_Z:n" 4.240548956883339e-17
"Vn_Z:p" -4.240548956883339e-17
"time" 3.070000000000001e-09
"Vn_D1:v" 0.000000000000000e+00
"Vn_D1:i" 7.517000028030623e-14
"Vn_D1:pwr" 0.000000000000000e+00
"Vn_GND:v" 0.000000000000000e+00
"Vn_GND:i" 2.548661409266855e-10
"Vn_GND:pwr" 0.000000000000000e+00
"Vn_SD:v" 0.000000000000000e+00
"Vn_SD:i" -5.105718062144664e-13
"Vn_SD:pwr" -0.000000000000000e+00
"Vn_VDD:v" 1.200000000000000e+00
"Vn_VDD:i" -2.544856618608956e-10
"Vn_VDD:pwr" -3.053827942330748e-10
"Vn_Z:v" 0.000000000000000e+00
"Vn_Z:i" -1.134200081373781e-17
"Vn_Z:pwr" -0.000000000000000e+00
"n_Z" 1.199999494854727e+00
"n_D1" 0.000000000000000e+00
"n_SD" 1.200000000000000e+00
"Vn_D1:n" -7.517000028030623e-14
"Vn_D1:p" 7.517000028030623e-14
"Vn_GND:n" -2.548661409266855e-10
"Vn_GND:p" 2.548661409266855e-10
"Vn_SD:n" 5.105718062144664e-13
"Vn_SD:p" -5.105718062144664e-13
"Vn_VDD:n" 2.544856618608956e-10
"Vn_VDD:p" -2.544856618608956e-10
"Vn_Z:n" 1.134200081373781e-17
"Vn_Z:p" -1.134200081373781e-17
"time" 3.150000000000003e-09
"Vn_D1:v" 0.000000000000000e+00
"Vn_D1:i" 7.517148309403381e-14
"Vn_D1:pwr" 0.000000000000000e+00
"Vn_GND:v" 0.000000000000000e+00
"Vn_GND:i" 2.548661435635669e-10
"Vn_GND:pwr" 0.000000000000000e+00
"Vn_SD:v" 0.000000000000000e+00
"Vn_SD:i" -5.105699206753770e-13
"Vn_SD:pwr" -0.000000000000000e+00
"Vn_VDD:v" 1.200000000000000e+00
"Vn_VDD:i" -2.544856723628608e-10
"Vn_VDD:pwr" -3.053828068354330e-10
"Vn_Z:v" 0.000000000000000e+00
"Vn_Z:i" 1.695137737083602e-18
"Vn_Z:pwr" 0.000000000000000e+00
"n_Z" 1.199999494854640e+00
"n_D1" 0.000000000000000e+00
"n_SD" 1.200000000000000e+00
"Vn_D1:n" -7.517148309403381e-14
"Vn_D1:p" 7.517148309403381e-14
"Vn_GND:n" -2.548661435635669e-10
"Vn_GND:p" 2.548661435635669e-10
"Vn_SD:n" 5.105699206753770e-13
"Vn_SD:p" -5.105699206753770e-13
"Vn_VDD:n" 2.544856723628608e-10
"Vn_VDD:p" -2.544856723628608e-10
"Vn_Z:n" -1.695137737083602e-18
"Vn_Z:p" 1.695137737083602e-18
"time" 3.310000000000005e-09
"Vn_D1:v" 0.000000000000000e+00
"Vn_D1:i" 7.517104331040079e-14
"Vn_D1:pwr" 0.000000000000000e+00
"Vn_GND:v" 0.000000000000000e+00
"Vn_GND:i" 2.548661318598050e-10
"Vn_GND:pwr" 0.000000000000000e+00
"Vn_SD:v" 0.000000000000000e+00
"Vn_SD:i" -5.105708018379094e-13
"Vn_SD:pwr" -0.000000000000000e+00
"Vn_VDD:v" 1.200000000000000e+00
"Vn_VDD:i" -2.544856709294726e-10
"Vn_VDD:pwr" -3.053828051153672e-10
"Vn_Z:v" 0.000000000000000e+00
"Vn_Z:i" 5.700473165360675e-19
"Vn_Z:pwr" 0.000000000000000e+00
"n_Z" 1.199999494854681e+00
"n_D1" 0.000000000000000e+00
"n_SD" 1.200000000000000e+00
"Vn_D1:n" -7.517104331040079e-14
"Vn_D1:p" 7.517104331040079e-14
"Vn_GND:n" -2.548661318598050e-10
"Vn_GND:p" 2.548661318598050e-10
"Vn_SD:n" 5.105708018379094e-13
"Vn_SD:p" -5.105708018379094e-13
"Vn_VDD:n" 2.544856709294726e-10
"Vn_VDD:p" -2.544856709294726e-10
"Vn_Z:n" -5.700473165360675e-19
"Vn_Z:p" 5.700473165360675e-19
"time" 3.630000000000011e-09
"Vn_D1:v" 0.000000000000000e+00
"Vn_D1:i" 7.517152469393595e-14
"Vn_D1:pwr" 0.000000000000000e+00
"Vn_GND:v" 0.000000000000000e+00
"Vn_GND:i" 2.548661161175075e-10
"Vn_GND:pwr" 0.000000000000000e+00
"Vn_SD:v" 0.000000000000000e+00
"Vn_SD:i" -5.105697452984687e-13
"Vn_SD:pwr" -0.000000000000000e+00
"Vn_VDD:v" 1.200000000000000e+00
"Vn_VDD:i" -2.544856450610442e-10
"Vn_VDD:pwr" -3.053827740732530e-10
"Vn_Z:v" 0.000000000000000e+00
"Vn_Z:i" 1.678186856728838e-18
"Vn_Z:pwr" 0.000000000000000e+00
"n_Z" 1.199999494854763e+00
"n_D1" 0.000000000000000e+00
"n_SD" 1.200000000000000e+00
"Vn_D1:n" -7.517152469393595e-14
"Vn_D1:p" 7.517152469393595e-14
"Vn_GND:n" -2.548661161175075e-10
"Vn_GND:p" 2.548661161175075e-10
"Vn_SD:n" 5.105697452984687e-13
"Vn_SD:p" -5.105697452984687e-13
"Vn_VDD:n" 2.544856450610442e-10
"Vn_VDD:p" -2.544856450610442e-10
"Vn_Z:n" -1.678186856728838e-18
"Vn_Z:p" 1.678186856728838e-18
"time" 4.270000000000022e-09
"Vn_D1:v" 0.000000000000000e+00
"Vn_D1:i" 7.517106341348595e-14
"Vn_D1:pwr" 0.000000000000000e+00
"Vn_GND:v" 0.000000000000000e+00
"Vn_GND:i" 2.548660759382692e-10
"Vn_GND:pwr" 0.000000000000000e+00
"Vn_SD:v" 0.000000000000000e+00
"Vn_SD:i" -5.105708399275882e-13
"Vn_SD:pwr" -0.000000000000000e+00
"Vn_VDD:v" 1.200000000000000e+00
"Vn_VDD:i" -2.544856144970567e-10
"Vn_VDD:pwr" -3.053827373964681e-10
"Vn_Z:v" 0.000000000000000e+00
"Vn_Z:i" 4.445934145914635e-19
"Vn_Z:pwr" 0.000000000000000e+00
"n_Z" 1.199999494854917e+00
"n_D1" 0.000000000000000e+00
"n_SD" 1.200000000000000e+00
"Vn_D1:n" -7.517106341348595e-14
"Vn_D1:p" 7.517106341348595e-14
"Vn_GND:n" -2.548660759382692e-10
"Vn_GND:p" 2.548660759382692e-10
"Vn_SD:n" 5.105708399275882e-13
"Vn_SD:p" -5.105708399275882e-13
"Vn_VDD:n" 2.544856144970567e-10
"Vn_VDD:p" -2.544856144970567e-10
"Vn_Z:n" -4.445934145914635e-19
"Vn_Z:p" 4.445934145914635e-19
"time" 5.050000000000022e-09
"Vn_D1:v" 0.000000000000000e+00
"Vn_D1:i" 7.517143347278713e-14
"Vn_D1:pwr" 0.000000000000000e+00
"Vn_GND:v" 0.000000000000000e+00
"Vn_GND:i" 2.548660330382062e-10
"Vn_GND:pwr" 0.000000000000000e+00
"Vn_SD:v" 0.000000000000000e+00
"Vn_SD:i" -5.105698193595673e-13
"Vn_SD:pwr" -0.000000000000000e+00
"Vn_VDD:v" 1.200000000000000e+00
"Vn_VDD:i" -2.544855617697942e-10
"Vn_VDD:pwr" -3.053826741237531e-10
"Vn_Z:v" 0.000000000000000e+00
"Vn_Z:i" 1.864414527766561e-18
"Vn_Z:pwr" 0.000000000000000e+00
"n_Z" 1.199999494855122e+00
"n_D1" 0.000000000000000e+00
"n_SD" 1.200000000000000e+00
"Vn_D1:n" -7.517143347278713e-14
"Vn_D1:p" 7.517143347278713e-14
"Vn_GND:n" -2.548660330382062e-10
"Vn_GND:p" 2.548660330382062e-10
"Vn_SD:n" 5.105698193595673e-13
"Vn_SD:p" -5.105698193595673e-13
"Vn_VDD:n" 2.544855617697942e-10
"Vn_VDD:p" -2.544855617697942e-10
"Vn_Z:n" -1.864414527766561e-18
"Vn_Z:p" 1.864414527766561e-18
"time" 5.830000000000022e-09
"Vn_D1:v" 0.000000000000000e+00
"Vn_D1:i" 7.517104982160933e-14
"Vn_D1:pwr" 0.000000000000000e+00
"Vn_GND:v" 0.000000000000000e+00
"Vn_GND:i" 2.548659854121005e-10
"Vn_GND:pwr" 0.000000000000000e+00
"Vn_SD:v" 0.000000000000000e+00
"Vn_SD:i" -5.105708831147362e-13
"Vn_SD:pwr" -0.000000000000000e+00
"Vn_VDD:v" 1.200000000000000e+00
"Vn_VDD:i" -2.544855277126992e-10
"Vn_VDD:pwr" -3.053826332552390e-10
"Vn_Z:v" 0.000000000000000e+00
"Vn_Z:i" 1.410285559139234e-19
"Vn_Z:pwr" 0.000000000000000e+00
"n_Z" 1.199999494855300e+00
"n_D1" 0.000000000000000e+00
"n_SD" 1.200000000000000e+00
"Vn_D1:n" -7.517104982160933e-14
"Vn_D1:p" 7.517104982160933e-14
"Vn_GND:n" -2.548659854121005e-10
"Vn_GND:p" 2.548659854121005e-10
"Vn_SD:n" 5.105708831147362e-13
"Vn_SD:p" -5.105708831147362e-13
"Vn_VDD:n" 2.544855277126992e-10
"Vn_VDD:p" -2.544855277126992e-10
"Vn_Z:n" -1.410285559139234e-19
"Vn_Z:p" 1.410285559139234e-19
"time" 6.010000000000000e-09
"Vn_D1:v" 0.000000000000000e+00
"Vn_D1:i" 7.517176082611631e-14
"Vn_D1:pwr" 0.000000000000000e+00
"Vn_GND:v" 0.000000000000000e+00
"Vn_GND:i" 2.548659793619414e-10
"Vn_GND:pwr" 0.000000000000000e+00
"Vn_SD:v" 0.000000000000000e+00
"Vn_SD:i" -5.105693950622987e-13
"Vn_SD:pwr" -0.000000000000000e+00
"Vn_VDD:v" 1.200000000000000e+00
"Vn_VDD:i" -2.544855013558440e-10
"Vn_VDD:pwr" -3.053826016270128e-10
"Vn_Z:v" 0.000000000000000e+00
"Vn_Z:i" 3.721293173877675e-18
"Vn_Z:pwr" 0.000000000000000e+00
"n_Z" 1.199999494855379e+00
"n_D1" 0.000000000000000e+00
"n_SD" 1.200000000000000e+00
"Vn_D1:n" -7.517176082611631e-14
"Vn_D1:p" 7.517176082611631e-14
"Vn_GND:n" -2.548659793619414e-10
"Vn_GND:p" 2.548659793619414e-10
"Vn_SD:n" 5.105693950622987e-13
"Vn_SD:p" -5.105693950622987e-13
"Vn_VDD:n" 2.544855013558440e-10
"Vn_VDD:p" -2.544855013558440e-10
"Vn_Z:n" -3.721293173877675e-18
"Vn_Z:p" 3.721293173877675e-18
"time" 6.019999479700000e-09
"Vn_D1:v" 0.000000000000000e+00
"Vn_D1:i" 7.517122578100466e-14
"Vn_D1:pwr" 0.000000000000000e+00
"Vn_GND:v" 0.000000000000000e+00
"Vn_GND:i" 2.548659756859930e-10
"Vn_GND:pwr" 0.000000000000000e+00
"Vn_SD:v" 0.000000000000000e+00
"Vn_SD:i" -5.105706373429292e-13
"Vn_SD:pwr" -0.000000000000000e+00
"Vn_VDD:v" 1.200000000000000e+00
"Vn_VDD:i" -2.544855069555739e-10
"Vn_VDD:pwr" -3.053826083466887e-10
"Vn_Z:v" 0.000000000000000e+00
"Vn_Z:i" -7.870395123048863e-19
"Vn_Z:pwr" -0.000000000000000e+00
"n_Z" 1.199999494855377e+00
"n_D1" 0.000000000000000e+00
"n_SD" 1.200000000000000e+00
"Vn_D1:n" -7.517122578100466e-14
"Vn_D1:p" 7.517122578100466e-14
"Vn_GND:n" -2.548659756859930e-10
"Vn_GND:p" 2.548659756859930e-10
"Vn_SD:n" 5.105706373429292e-13
"Vn_SD:p" -5.105706373429292e-13
"Vn_VDD:n" 2.544855069555739e-10
"Vn_VDD:p" -2.544855069555739e-10
"Vn_Z:n" 7.870395123048863e-19
"Vn_Z:p" -7.870395123048863e-19
"time" 6.020000000000000e-09
"Vn_D1:v" 0.000000000000000e+00
"Vn_D1:i" -5.305157157542763e-07
"Vn_D1:pwr" -0.000000000000000e+00
"Vn_GND:v" 0.000000000000000e+00
"Vn_GND:i" 9.544344740334050e-08
"Vn_GND:pwr" 0.000000000000000e+00
"Vn_SD:v" 0.000000000000000e+00
"Vn_SD:i" 5.429790940947467e-11
"Vn_SD:pwr" 0.000000000000000e+00
"Vn_VDD:v" 1.200000000000000e+00
"Vn_VDD:i" 4.350173504761087e-07
"Vn_VDD:pwr" 5.220208205713305e-07
"Vn_Z:v" 0.000000000000000e+00
"Vn_Z:i" 5.652819720227683e-13
"Vn_Z:pwr" 0.000000000000000e+00
"n_Z" 1.199999494855444e+00
"n_D1" 2.456516759776461e-07
"n_SD" 1.200000000000000e+00
"Vn_D1:n" 5.305157157542763e-07
"Vn_D1:p" -5.305157157542763e-07
"Vn_GND:n" -9.544344740334050e-08
"Vn_GND:p" 9.544344740334050e-08
"Vn_SD:n" -5.429790940947467e-11
"Vn_SD:p" 5.429790940947467e-11
"Vn_VDD:n" -4.350173504761087e-07
"Vn_VDD:p" 4.350173504761087e-07
"Vn_Z:n" -5.652819720227683e-13
"Vn_Z:p" 5.652819720227683e-13
"time" 6.020001040600000e-09
"Vn_D1:v" 0.000000000000000e+00
"Vn_D1:i" -5.317631848630243e-07
"Vn_D1:pwr" -0.000000000000000e+00
"Vn_GND:v" 0.000000000000000e+00
"Vn_GND:i" 9.565916587830049e-08
"Vn_GND:pwr" 0.000000000000000e+00
"Vn_SD:v" 0.000000000000000e+00
"Vn_SD:i" 1.632122112749645e-10
"Vn_SD:pwr" 0.000000000000000e+00
"Vn_VDD:v" 1.200000000000000e+00
"Vn_VDD:i" 4.359368657893430e-07
"Vn_VDD:pwr" 5.231242389472116e-07
"Vn_Z:v" 0.000000000000000e+00
"Vn_Z:i" 3.885171572154920e-12
"Vn_Z:pwr" 0.000000000000000e+00
"n_Z" 1.199999494856362e+00
"n_D1" 7.369550279329381e-07
"n_SD" 1.200000000000000e+00
"Vn_D1:n" 5.317631848630243e-07
"Vn_D1:p" -5.317631848630243e-07
"Vn_GND:n" -9.565916587830049e-08
"Vn_GND:p" 9.565916587830049e-08
"Vn_SD:n" -1.632122112749645e-10
"Vn_SD:p" 1.632122112749645e-10
"Vn_VDD:n" -4.359368657893430e-07
"Vn_VDD:p" 4.359368657893430e-07
"Vn_Z:n" -3.885171572154920e-12
"Vn_Z:p" 3.885171572154920e-12
"time" 6.020003121800001e-09
"Vn_D1:v" 0.000000000000000e+00
"Vn_D1:i" -5.342398272312735e-07
"Vn_D1:pwr" -0.000000000000000e+00
"Vn_GND:v" 0.000000000000000e+00
"Vn_GND:i" 9.608766329241626e-08
"Vn_GND:pwr" 0.000000000000000e+00
"Vn_SD:v" 0.000000000000000e+00
"Vn_SD:i" 3.796449616068811e-10
"Vn_SD:pwr" 0.000000000000000e+00
"Vn_VDD:v" 1.200000000000000e+00
"Vn_VDD:i" 4.377577010814770e-07
"Vn_VDD:pwr" 5.253092412977724e-07
"Vn_Z:v" 0.000000000000000e+00
"Vn_Z:i" 1.476405702933692e-11
"Vn_Z:pwr" 0.000000000000000e+00
"n_Z" 1.199999494860773e+00
"n_D1" 1.719561731843522e-06
"n_SD" 1.200000000000000e+00
"Vn_D1:n" 5.342398272312735e-07
"Vn_D1:p" -5.342398272312735e-07
"Vn_GND:n" -9.608766329241626e-08
"Vn_GND:p" 9.608766329241626e-08
"Vn_SD:n" -3.796449616068811e-10
"Vn_SD:p" 3.796449616068811e-10
"Vn_VDD:n" -4.377577010814770e-07
"Vn_VDD:p" 4.377577010814770e-07
"Vn_Z:n" -1.476405702933692e-11
"Vn_Z:p" 1.476405702933692e-11
"time" 6.020007284200001e-09
"Vn_D1:v" 0.000000000000000e+00
"Vn_D1:i" -5.390851917847562e-07
"Vn_D1:pwr" -0.000000000000000e+00
"Vn_GND:v" 0.000000000000000e+00
"Vn_GND:i" 9.692723837264505e-08
"Vn_GND:pwr" 0.000000000000000e+00
"Vn_SD:v" 0.000000000000000e+00
"Vn_SD:i" 8.042005169045572e-10
"Vn_SD:pwr" 0.000000000000000e+00
"Vn_VDD:v" 1.200000000000000e+00
"Vn_VDD:i" 4.412933253955882e-07
"Vn_VDD:pwr" 5.295519904747057e-07
"Vn_Z:v" 0.000000000000000e+00
"Vn_Z:i" 6.037168965975657e-11
"Vn_Z:pwr" 0.000000000000000e+00
"n_Z" 1.199999494896312e+00
"n_D1" 3.684775139664691e-06
"n_SD" 1.200000000000000e+00
"Vn_D1:n" 5.390851917847562e-07
"Vn_D1:p" -5.390851917847562e-07
"Vn_GND:n" -9.692723837264505e-08
"Vn_GND:p" 9.692723837264505e-08
"Vn_SD:n" -8.042005169045572e-10
"Vn_SD:p" 8.042005169045572e-10
"Vn_VDD:n" -4.412933253955882e-07
"Vn_VDD:p" 4.412933253955882e-07
"Vn_Z:n" -6.037168965975657e-11
"Vn_Z:p" 6.037168965975657e-11
"time" 6.020015609000002e-09
"Vn_D1:v" 0.000000000000000e+00
"Vn_D1:i" -5.483629518437375e-07
"Vn_D1:pwr" -0.000000000000000e+00
"Vn_GND:v" 0.000000000000000e+00
"Vn_GND:i" 9.853872441587422e-08
"Vn_GND:pwr" 0.000000000000000e+00
"Vn_SD:v" 0.000000000000000e+00
"Vn_SD:i" 1.620992901877225e-09
"Vn_SD:pwr" 0.000000000000000e+00
"Vn_VDD:v" 1.200000000000000e+00
"Vn_VDD:i" 4.479704121091376e-07
"Vn_VDD:pwr" 5.375644945309650e-07
"Vn_Z:v" 0.000000000000000e+00
"Vn_Z:i" 2.327684285595120e-10
"Vn_Z:pwr" 0.000000000000000e+00
"n_Z" 1.199999495173623e+00
"n_D1" 7.615201955307027e-06
"n_SD" 1.200000000000000e+00
"Vn_D1:n" 5.483629518437375e-07
"Vn_D1:p" -5.483629518437375e-07
"Vn_GND:n" -9.853872441587422e-08
"Vn_GND:p" 9.853872441587422e-08
"Vn_SD:n" -1.620992901877225e-09
"Vn_SD:p" 1.620992901877225e-09
"Vn_VDD:n" -4.479704121091376e-07
"Vn_VDD:p" 4.479704121091376e-07
"Vn_Z:n" -2.327684285595120e-10
"Vn_Z:p" 2.327684285595120e-10
"time" 6.020032258600003e-09
"Vn_D1:v" 0.000000000000000e+00
"Vn_D1:i" -5.654016969711469e-07
"Vn_D1:pwr" -0.000000000000000e+00
"Vn_GND:v" 0.000000000000000e+00
"Vn_GND:i" 1.015069396350153e-07
"Vn_GND:pwr" 0.000000000000000e+00
"Vn_SD:v" 0.000000000000000e+00
"Vn_SD:i" 3.132416776787154e-09
"Vn_SD:pwr" 0.000000000000000e+00
"Vn_VDD:v" 1.200000000000000e+00
"Vn_VDD:i" 4.599496745927981e-07
"Vn_VDD:pwr" 5.519396095113577e-07
"Vn_Z:v" 0.000000000000000e+00
"Vn_Z:i" 8.126100631631060e-10
"Vn_Z:pwr" 0.000000000000000e+00
"n_Z" 1.199999497151479e+00
"n_D1" 1.547605558659170e-05
"n_SD" 1.200000000000000e+00
"Vn_D1:n" 5.654016969711469e-07
"Vn_D1:p" -5.654016969711469e-07
"Vn_GND:n" -1.015069396350153e-07
"Vn_GND:p" 1.015069396350153e-07
"Vn_SD:n" -3.132416776787154e-09
"Vn_SD:p" 3.132416776787154e-09
"Vn_VDD:n" -4.599496745927981e-07
"Vn_VDD:p" 4.599496745927981e-07
"Vn_Z:n" -8.126100631631060e-10
"Vn_Z:p" 8.126100631631060e-10
"time" 6.020065557800006e-09
"Vn_D1:v" 0.000000000000000e+00
"Vn_D1:i" -5.817059064839716e-07
"Vn_D1:pwr" -0.000000000000000e+00
"Vn_GND:v" 0.000000000000000e+00
"Vn_GND:i" 1.066058849970656e-07
"Vn_GND:pwr" 0.000000000000000e+00
"Vn_SD:v" 0.000000000000000e+00
"Vn_SD:i" 5.731888044362348e-09
"Vn_SD:pwr" 0.000000000000000e+00
"Vn_VDD:v" 1.200000000000000e+00
"Vn_VDD:i" 4.668923197434518e-07
"Vn_VDD:pwr" 5.602707836921422e-07
"Vn_Z:v" 0.000000000000000e+00
"Vn_Z:i" 2.475759685205772e-09
"Vn_Z:pwr" 0.000000000000000e+00
"n_Z" 1.199999509594670e+00
"n_D1" 3.119776284916105e-05
"n_SD" 1.200000000000000e+00
"Vn_D1:n" 5.817059064839716e-07
"Vn_D1:p" -5.817059064839716e-07
"Vn_GND:n" -1.066058849970656e-07
"Vn_GND:p" 1.066058849970656e-07
"Vn_SD:n" -5.731888044362348e-09
"Vn_SD:p" 5.731888044362348e-09
"Vn_VDD:n" -4.668923197434518e-07
"Vn_VDD:p" 4.668923197434518e-07
"Vn_Z:n" -2.475759685205772e-09
"Vn_Z:p" 2.475759685205772e-09
"time" 6.020132156200012e-09
"Vn_D1:v" 0.000000000000000e+00
"Vn_D1:i" -6.292975476982075e-07
"Vn_D1:pwr" -0.000000000000000e+00
"Vn_GND:v" 0.000000000000000e+00
"Vn_GND:i" 1.141176726400687e-07
"Vn_GND:pwr" 0.000000000000000e+00
"Vn_SD:v" 0.000000000000000e+00
"Vn_SD:i" 9.629159823804017e-09
"Vn_SD:pwr" 0.000000000000000e+00
"Vn_VDD:v" 1.200000000000000e+00
"Vn_VDD:i" 4.993147008901448e-07
"Vn_VDD:pwr" 5.991776410681738e-07
"Vn_Z:v" 0.000000000000000e+00
"Vn_Z:i" 6.235958477201005e-09
"Vn_Z:pwr" 0.000000000000000e+00
"n_Z" 1.199999575524953e+00
"n_D1" 6.264117737429975e-05
"n_SD" 1.200000000000000e+00
"Vn_D1:n" 6.292975476982075e-07
"Vn_D1:p" -6.292975476982075e-07
"Vn_GND:n" -1.141176726400687e-07
"Vn_GND:p" 1.141176726400687e-07
"Vn_SD:n" -9.629159823804017e-09
"Vn_SD:p" 9.629159823804017e-09
"Vn_VDD:n" -4.993147008901448e-07
"Vn_VDD:p" 4.993147008901448e-07
"Vn_Z:n" -6.235958477201005e-09
"Vn_Z:p" 6.235958477201005e-09
"time" 6.020265353000023e-09
"Vn_D1:v" 0.000000000000000e+00
"Vn_D1:i" -6.664210333697022e-07
"Vn_D1:pwr" -0.000000000000000e+00
"Vn_GND:v" 0.000000000000000e+00
"Vn_GND:i" 1.227045782286871e-07
"Vn_GND:pwr" 0.000000000000000e+00
"Vn_SD:v" 0.000000000000000e+00
"Vn_SD:i" 1.414689398203862e-08
"Vn_SD:pwr" 0.000000000000000e+00