HEADER
"PSFversion" "1.00"
"simulator" "spectre"
"version" "10.1.1.164.isr11"
"date" "3:01:57 PM, Fri Oct 17, 2014"
"design" "* Spectre Timing Acquisition"
"analysis type" "tran"
"analysis name" "transient1-027_transient1"
"analysis description" "Transient Analysis `transient1-027_transient1': time = (0 s -> 39 ns)"
"xVecSorted" "ascending"
"tolerance.relative" 0.00100000
"start" 0.00000
"outputstart" 0.00000
"stop" 3.90000e-08
"step" 3.90000e-11
"maxstep" 7.80000e-10
"ic" "all"
"useprevic" "no"
"skipdc" "no"
"reltol" 0.00100000
"abstol(V)" 1.00000e-06
"abstol(I)" 1.00000e-12
"temp" 25.0000
"tnom" 27.0000
"tempeffects" "all"
"errpreset" "moderate"
"method" "traponly"
"lteratio" 3.50000
"relref" "sigglobal"
"cmin" 0.00000
"gmin" 1.00000e-12
TYPE
"sweep" FLOAT DOUBLE PROP(
"key" "sweep"
)
"Tau" FLOAT DOUBLE PROP(
"units" "N*m"
"key" "node"
"tolerance" 1.00000e-06
)
"Alpha" FLOAT DOUBLE PROP(
"units" "rads/s^2"
"key" "node"
"tolerance" 1.00000e-06
)
"Omega" FLOAT DOUBLE PROP(
"units" "rads/s"
"key" "node"
"tolerance" 1.00000e-06
)
"Theta" FLOAT DOUBLE PROP(
"units" "rads"
"key" "node"
"tolerance" 1.00000e-06
)
"F" FLOAT DOUBLE PROP(
"units" "N"
"key" "node"
"tolerance" 1.00000e-06
)
"Imp" FLOAT DOUBLE PROP(
"units" "m/s^3"
"key" "node"
"tolerance" 1.00000e-06
)
"Acc" FLOAT DOUBLE PROP(
"units" "m/s^2"
"key" "node"
"tolerance" 1.00000e-06
)
"Vel" FLOAT DOUBLE PROP(
"units" "m/s"
"key" "node"
"tolerance" 1.00000e-06
)
"Pos" FLOAT DOUBLE PROP(
"units" "m"
"key" "node"
"tolerance" 1.00000e-06
)
"Phi" FLOAT DOUBLE PROP(
"units" "Wb"
"key" "node"
"tolerance" 1.00000e-09
)
"Q" FLOAT DOUBLE PROP(
"units" "coul"
"key" "node"
"tolerance" 1.00000e-14
)
"V" FLOAT DOUBLE PROP(
"units" "V"
"key" "node"
"tolerance" 1.00000e-06
)
"I" FLOAT DOUBLE PROP(
"units" "A"
"key" "branch"
"tolerance" 1.00000e-12
)
"MMF" FLOAT DOUBLE PROP(
"units" "A*turn"
"key" "node"
"tolerance" 1.00000e-12
)
"Wb" FLOAT DOUBLE PROP(
"units" "Wb"
"key" "node"
"tolerance" 1.00000e-09
)
"Temp" FLOAT DOUBLE PROP(
"units" "C"
"key" "node"
"tolerance" 0.000100000
)
"Pwr" FLOAT DOUBLE PROP(
"units" "W"
"key" "node"
"tolerance" 1.00000e-09
)
"U" FLOAT DOUBLE PROP(
"units" ""
"key" "node"
"tolerance" 1.00000e-06
)
"V/Sec" FLOAT DOUBLE PROP(
"units" "V/s"
"key" "node"
"tolerance" 0.000100000
)
"I/Sec" FLOAT DOUBLE PROP(
"units" "A/s"
"key" "node"
"tolerance" 1.00000e-06
)
"1/Sec" FLOAT DOUBLE PROP(
"units" "1/s"
"key" "node"
"tolerance" 0.000100000
)
"HOD" FLOAT DOUBLE PROP(
"units" ""
"key" "node"
"tolerance" 0.0100000
)
"A" FLOAT DOUBLE PROP(
"key" "inst"
)
"W" FLOAT DOUBLE PROP(
"key" "inst"
)
SWEEP
"time" "sweep" PROP(
"sweep_direction" 0
"units" "s"
"plot" 0
"grid" 1
)
TRACE
"Vn_D1:v" "V" PROP(
"units" "V"
)
"Vn_D1:i" "A" PROP(
"units" "A"
)
"Vn_D1:pwr" "W" PROP(
"units" "W"
)
"Vn_GND:v" "V" PROP(
"units" "V"
)
"Vn_GND:i" "A" PROP(
"units" "A"
)
"Vn_GND:pwr" "W" PROP(
"units" "W"
)
"Vn_SD:v" "V" PROP(
"units" "V"
)
"Vn_SD:i" "A" PROP(
"units" "A"
)
"Vn_SD:pwr" "W" PROP(
"units" "W"
)
"Vn_VDD:v" "V" PROP(
"units" "V"
)
"Vn_VDD:i" "A" PROP(
"units" "A"
)
"Vn_VDD:pwr" "W" PROP(
"units" "W"
)
"Vn_Z:v" "V" PROP(
"units" "V"
)
"Vn_Z:i" "A" PROP(
"units" "A"
)
"Vn_Z:pwr" "W" PROP(
"units" "W"
)
"n_Z" "V"
"n_D1" "V"
"n_SD" "V"
"Vn_D1:n" "I"
"Vn_D1:p" "I"
"Vn_GND:n" "I"
"Vn_GND:p" "I"
"Vn_SD:n" "I"
"Vn_SD:p" "I"
"Vn_VDD:n" "I"
"Vn_VDD:p" "I"
"Vn_Z:n" "I"
"Vn_Z:p" "I"
VALUE
"time" 0.000000000000000e+00
"Vn_D1:v" 0.000000000000000e+00
"Vn_D1:i" 7.517119452868265e-14
"Vn_D1:pwr" 0.000000000000000e+00
"Vn_GND:v" 0.000000000000000e+00
"Vn_GND:i" 2.548493107915346e-10
"Vn_GND:pwr" 0.000000000000000e+00
"Vn_SD:v" 0.000000000000000e+00
"Vn_SD:i" -5.105704018311279e-13
"Vn_SD:pwr" -0.000000000000000e+00
"Vn_VDD:v" 1.200000000000000e+00
"Vn_VDD:i" -2.544688430804961e-10
"Vn_VDD:pwr" -3.053626116965954e-10
"Vn_Z:v" 0.000000000000000e+00
"Vn_Z:i" 0.000000000000000e+00
"Vn_Z:pwr" 0.000000000000000e+00
"n_Z" 1.199999494927445e+00
"n_D1" 0.000000000000000e+00
"n_SD" 1.200000000000000e+00
"Vn_D1:n" -7.517119452868265e-14
"Vn_D1:p" 7.517119452868265e-14
"Vn_GND:n" -2.548493107915346e-10
"Vn_GND:p" 2.548493107915346e-10
"Vn_SD:n" 5.105704018311279e-13
"Vn_SD:p" -5.105704018311279e-13
"Vn_VDD:n" 2.544688430804961e-10
"Vn_VDD:p" -2.544688430804961e-10
"Vn_Z:n" 0.000000000000000e+00
"Vn_Z:p" 0.000000000000000e+00
"time" 3.900000000000000e-11
"Vn_D1:v" 0.000000000000000e+00
"Vn_D1:i" 7.485702064188505e-14
"Vn_D1:pwr" 0.000000000000000e+00
"Vn_GND:v" 0.000000000000000e+00
"Vn_GND:i" 2.548643158389620e-10
"Vn_GND:pwr" 0.000000000000000e+00
"Vn_SD:v" 0.000000000000000e+00
"Vn_SD:i" -5.109670660333289e-13
"Vn_SD:pwr" -0.000000000000000e+00
"Vn_VDD:v" 1.200000000000000e+00
"Vn_VDD:i" -2.544785794936281e-10
"Vn_VDD:pwr" -3.053742953923537e-10
"Vn_Z:v" 0.000000000000000e+00
"Vn_Z:i" -4.557795603208278e-15
"Vn_Z:pwr" -0.000000000000000e+00
"n_Z" 1.199999494889625e+00
"n_D1" 0.000000000000000e+00
"n_SD" 1.200000000000000e+00
"Vn_D1:n" -7.485702064188505e-14
"Vn_D1:p" 7.485702064188505e-14
"Vn_GND:n" -2.548643158389620e-10
"Vn_GND:p" 2.548643158389620e-10
"Vn_SD:n" 5.109670660333289e-13
"Vn_SD:p" -5.109670660333289e-13
"Vn_VDD:n" 2.544785794936281e-10
"Vn_VDD:p" -2.544785794936281e-10
"Vn_Z:n" 4.557795603208278e-15
"Vn_Z:p" -4.557795603208278e-15
"time" 1.170000000000000e-10
"Vn_D1:v" 0.000000000000000e+00
"Vn_D1:i" 7.504789717986051e-14
"Vn_D1:pwr" 0.000000000000000e+00
"Vn_GND:v" 0.000000000000000e+00
"Vn_GND:i" 2.548656934112363e-10
"Vn_GND:pwr" 0.000000000000000e+00
"Vn_SD:v" 0.000000000000000e+00
"Vn_SD:i" -5.107104316169197e-13
"Vn_SD:pwr" -0.000000000000000e+00
"Vn_VDD:v" 1.200000000000000e+00
"Vn_VDD:i" -2.544835061757363e-10
"Vn_VDD:pwr" -3.053802074108835e-10
"Vn_Z:v" 0.000000000000000e+00
"Vn_Z:i" -1.456206061288998e-15
"Vn_Z:pwr" -0.000000000000000e+00
"n_Z" 1.199999494865458e+00
"n_D1" 0.000000000000000e+00
"n_SD" 1.200000000000000e+00
"Vn_D1:n" -7.504789717986051e-14
"Vn_D1:p" 7.504789717986051e-14
"Vn_GND:n" -2.548656934112363e-10
"Vn_GND:p" 2.548656934112363e-10
"Vn_SD:n" 5.107104316169197e-13
"Vn_SD:p" -5.107104316169197e-13
"Vn_VDD:n" 2.544835061757363e-10
"Vn_VDD:p" -2.544835061757363e-10
"Vn_Z:n" 1.456206061288998e-15
"Vn_Z:p" -1.456206061288998e-15
"time" 2.730000000000000e-10
"Vn_D1:v" 0.000000000000000e+00
"Vn_D1:i" 7.521318284964228e-14
"Vn_D1:pwr" 0.000000000000000e+00
"Vn_GND:v" 0.000000000000000e+00
"Vn_GND:i" 2.548665328767906e-10
"Vn_GND:pwr" 0.000000000000000e+00
"Vn_SD:v" 0.000000000000000e+00
"Vn_SD:i" -5.105222141052504e-13
"Vn_SD:pwr" -0.000000000000000e+00
"Vn_VDD:v" 1.200000000000000e+00
"Vn_VDD:i" -2.544866712146398e-10
"Vn_VDD:pwr" -3.053840054575677e-10
"Vn_Z:v" 0.000000000000000e+00
"Vn_Z:i" 5.155031948221466e-16
"Vn_Z:pwr" 0.000000000000000e+00
"n_Z" 1.199999494849846e+00
"n_D1" 0.000000000000000e+00
"n_SD" 1.200000000000000e+00
"Vn_D1:n" -7.521318284964228e-14
"Vn_D1:p" 7.521318284964228e-14
"Vn_GND:n" -2.548665328767906e-10
"Vn_GND:p" 2.548665328767906e-10
"Vn_SD:n" 5.105222141052504e-13
"Vn_SD:p" -5.105222141052504e-13
"Vn_VDD:n" 2.544866712146398e-10
"Vn_VDD:p" -2.544866712146398e-10
"Vn_Z:n" -5.155031948221466e-16
"Vn_Z:p" 5.155031948221466e-16
"time" 5.850000000000002e-10
"Vn_D1:v" 0.000000000000000e+00
"Vn_D1:i" 7.514655623284526e-14
"Vn_D1:pwr" 0.000000000000000e+00
"Vn_GND:v" 0.000000000000000e+00
"Vn_GND:i" 2.548661571482304e-10
"Vn_GND:pwr" 0.000000000000000e+00
"Vn_SD:v" 0.000000000000000e+00
"Vn_SD:i" -5.105990025203198e-13
"Vn_SD:pwr" -0.000000000000000e+00
"Vn_VDD:v" 1.200000000000000e+00
"Vn_VDD:i" -2.544853203868172e-10
"Vn_VDD:pwr" -3.053823844641806e-10
"Vn_Z:v" 0.000000000000000e+00
"Vn_Z:i" -3.153028431383905e-16
"Vn_Z:pwr" -0.000000000000000e+00
"n_Z" 1.199999494856491e+00
"n_D1" 0.000000000000000e+00
"n_SD" 1.200000000000000e+00
"Vn_D1:n" -7.514655623284526e-14
"Vn_D1:p" 7.514655623284526e-14
"Vn_GND:n" -2.548661571482304e-10
"Vn_GND:p" 2.548661571482304e-10
"Vn_SD:n" 5.105990025203198e-13
"Vn_SD:p" -5.105990025203198e-13
"Vn_VDD:n" 2.544853203868172e-10
"Vn_VDD:p" -2.544853203868172e-10
"Vn_Z:n" 3.153028431383905e-16
"Vn_Z:p" -3.153028431383905e-16
"time" 1.209000000000000e-09
"Vn_D1:v" 0.000000000000000e+00
"Vn_D1:i" 7.519024884161144e-14
"Vn_D1:pwr" 0.000000000000000e+00
"Vn_GND:v" 0.000000000000000e+00
"Vn_GND:i" 2.548663632160222e-10
"Vn_GND:pwr" 0.000000000000000e+00
"Vn_SD:v" 0.000000000000000e+00
"Vn_SD:i" -5.105480841084962e-13
"Vn_SD:pwr" -0.000000000000000e+00
"Vn_VDD:v" 1.200000000000000e+00
"Vn_VDD:i" -2.544861894512217e-10
"Vn_VDD:pwr" -3.053834273414660e-10
"Vn_Z:v" 0.000000000000000e+00
"Vn_Z:i" 2.504621835043199e-16
"Vn_Z:pwr" 0.000000000000000e+00
"n_Z" 1.199999494852186e+00
"n_D1" 0.000000000000000e+00
"n_SD" 1.200000000000000e+00
"Vn_D1:n" -7.519024884161144e-14
"Vn_D1:p" 7.519024884161144e-14
"Vn_GND:n" -2.548663632160222e-10
"Vn_GND:p" 2.548663632160222e-10
"Vn_SD:n" 5.105480841084962e-13
"Vn_SD:p" -5.105480841084962e-13
"Vn_VDD:n" 2.544861894512217e-10
"Vn_VDD:p" -2.544861894512217e-10
"Vn_Z:n" -2.504621835043199e-16
"Vn_Z:p" 2.504621835043199e-16
"time" 1.989000000000000e-09
"Vn_D1:v" 0.000000000000000e+00
"Vn_D1:i" 7.515604089725601e-14
"Vn_D1:pwr" 0.000000000000000e+00
"Vn_GND:v" 0.000000000000000e+00
"Vn_GND:i" 2.548661221633698e-10
"Vn_GND:pwr" 0.000000000000000e+00
"Vn_SD:v" 0.000000000000000e+00
"Vn_SD:i" -5.105883031646129e-13
"Vn_SD:pwr" -0.000000000000000e+00
"Vn_VDD:v" 1.200000000000000e+00
"Vn_VDD:i" -2.544854183606241e-10
"Vn_VDD:pwr" -3.053825020327490e-10
"Vn_Z:v" 0.000000000000000e+00
"Vn_Z:i" -2.048836196889368e-16
"Vn_Z:pwr" -0.000000000000000e+00
"n_Z" 1.199999494855968e+00
"n_D1" 0.000000000000000e+00
"n_SD" 1.200000000000000e+00
"Vn_D1:n" -7.515604089725601e-14
"Vn_D1:p" 7.515604089725601e-14
"Vn_GND:n" -2.548661221633698e-10
"Vn_GND:p" 2.548661221633698e-10
"Vn_SD:n" 5.105883031646129e-13
"Vn_SD:p" -5.105883031646129e-13
"Vn_VDD:n" 2.544854183606241e-10
"Vn_VDD:p" -2.544854183606241e-10
"Vn_Z:n" 2.048836196889368e-16
"Vn_Z:p" -2.048836196889368e-16
"time" 2.769000000000001e-09
"Vn_D1:v" 0.000000000000000e+00
"Vn_D1:i" 7.518349696219739e-14
"Vn_D1:pwr" 0.000000000000000e+00
"Vn_GND:v" 0.000000000000000e+00
"Vn_GND:i" 2.548662379243367e-10
"Vn_GND:pwr" 0.000000000000000e+00
"Vn_SD:v" 0.000000000000000e+00
"Vn_SD:i" -5.105557042435103e-13
"Vn_SD:pwr" -0.000000000000000e+00
"Vn_VDD:v" 1.200000000000000e+00
"Vn_VDD:i" -2.544859692727917e-10
"Vn_VDD:pwr" -3.053831631273501e-10
"Vn_Z:v" 0.000000000000000e+00
"Vn_Z:i" 1.715998577138648e-16
"Vn_Z:pwr" 0.000000000000000e+00
"n_Z" 1.199999494853206e+00
"n_D1" 0.000000000000000e+00
"n_SD" 1.200000000000000e+00
"Vn_D1:n" -7.518349696219739e-14
"Vn_D1:p" 7.518349696219739e-14
"Vn_GND:n" -2.548662379243367e-10
"Vn_GND:p" 2.548662379243367e-10
"Vn_SD:n" 5.105557042435103e-13
"Vn_SD:p" -5.105557042435103e-13
"Vn_VDD:n" 2.544859692727917e-10
"Vn_VDD:p" -2.544859692727917e-10
"Vn_Z:n" -1.715998577138648e-16
"Vn_Z:p" 1.715998577138648e-16
"time" 3.000000000000000e-09
"Vn_D1:v" 0.000000000000000e+00
"Vn_D1:i" 7.516617722857872e-14
"Vn_D1:pwr" 0.000000000000000e+00
"Vn_GND:v" 0.000000000000000e+00
"Vn_GND:i" 2.548661142280249e-10
"Vn_GND:pwr" 0.000000000000000e+00
"Vn_SD:v" 0.000000000000000e+00
"Vn_SD:i" -5.105768798997031e-13
"Vn_SD:pwr" -0.000000000000000e+00
"Vn_VDD:v" 1.200000000000000e+00
"Vn_VDD:i" -2.544855472819711e-10
"Vn_VDD:pwr" -3.053826567383654e-10
"Vn_Z:v" 0.000000000000000e+00
"Vn_Z:i" -8.715377417268603e-17
"Vn_Z:pwr" -0.000000000000000e+00
"n_Z" 1.199999494855282e+00
"n_D1" 0.000000000000000e+00
"n_SD" 1.200000000000000e+00
"Vn_D1:n" -7.516617722857872e-14
"Vn_D1:p" 7.516617722857872e-14
"Vn_GND:n" -2.548661142280249e-10
"Vn_GND:p" 2.548661142280249e-10
"Vn_SD:n" 5.105768798997031e-13
"Vn_SD:p" -5.105768798997031e-13
"Vn_VDD:n" 2.544855472819711e-10
"Vn_VDD:p" -2.544855472819711e-10
"Vn_Z:n" 8.715377417268603e-17
"Vn_Z:p" -8.715377417268603e-17
"time" 3.010000000000000e-09
"Vn_D1:v" 0.000000000000000e+00
"Vn_D1:i" 7.516592254424084e-14
"Vn_D1:pwr" 0.000000000000000e+00
"Vn_GND:v" 0.000000000000000e+00
"Vn_GND:i" 2.548661217610171e-10
"Vn_GND:pwr" 0.000000000000000e+00
"Vn_SD:v" 0.000000000000000e+00
"Vn_SD:i" -5.105763525713791e-13
"Vn_SD:pwr" -0.000000000000000e+00
"Vn_VDD:v" 1.200000000000000e+00
"Vn_VDD:i" -2.544855766190610e-10
"Vn_VDD:pwr" -3.053826919428732e-10
"Vn_Z:v" 0.000000000000000e+00
"Vn_Z:i" -6.620125832959693e-17
"Vn_Z:pwr" -0.000000000000000e+00
"n_Z" 1.199999494855141e+00
"n_D1" 0.000000000000000e+00
"n_SD" 1.200000000000000e+00
"Vn_D1:n" -7.516592254424084e-14
"Vn_D1:p" 7.516592254424084e-14
"Vn_GND:n" -2.548661217610171e-10
"Vn_GND:p" 2.548661217610171e-10
"Vn_SD:n" 5.105763525713791e-13
"Vn_SD:p" -5.105763525713791e-13
"Vn_VDD:n" 2.544855766190610e-10
"Vn_VDD:p" -2.544855766190610e-10
"Vn_Z:n" 6.620125832959693e-17
"Vn_Z:p" -6.620125832959693e-17
"time" 3.030000000000000e-09
"Vn_D1:v" 0.000000000000000e+00
"Vn_D1:i" 7.516755102125306e-14
"Vn_D1:pwr" 0.000000000000000e+00
"Vn_GND:v" 0.000000000000000e+00
"Vn_GND:i" 2.548661308354709e-10
"Vn_GND:pwr" 0.000000000000000e+00
"Vn_SD:v" 0.000000000000000e+00
"Vn_SD:i" -5.105744571748776e-13
"Vn_SD:pwr" -0.000000000000000e+00
"Vn_VDD:v" 1.200000000000000e+00
"Vn_VDD:i" -2.544856129612006e-10
"Vn_VDD:pwr" -3.053827355534407e-10
"Vn_Z:v" 0.000000000000000e+00
"Vn_Z:i" -4.249892600256431e-17
"Vn_Z:pwr" -0.000000000000000e+00
"n_Z" 1.199999494854960e+00
"n_D1" 0.000000000000000e+00
"n_SD" 1.200000000000000e+00
"Vn_D1:n" -7.516755102125306e-14
"Vn_D1:p" 7.516755102125306e-14
"Vn_GND:n" -2.548661308354709e-10
"Vn_GND:p" 2.548661308354709e-10
"Vn_SD:n" 5.105744571748776e-13
"Vn_SD:p" -5.105744571748776e-13
"Vn_VDD:n" 2.544856129612006e-10
"Vn_VDD:p" -2.544856129612006e-10
"Vn_Z:n" 4.249892600256431e-17
"Vn_Z:p" -4.249892600256431e-17
"time" 3.070000000000001e-09
"Vn_D1:v" 0.000000000000000e+00
"Vn_D1:i" 7.517020206426479e-14
"Vn_D1:pwr" 0.000000000000000e+00
"Vn_GND:v" 0.000000000000000e+00
"Vn_GND:i" 2.548661417919722e-10
"Vn_GND:pwr" 0.000000000000000e+00
"Vn_SD:v" 0.000000000000000e+00
"Vn_SD:i" -5.105715959782416e-13
"Vn_SD:pwr" -0.000000000000000e+00
"Vn_VDD:v" 1.200000000000000e+00
"Vn_VDD:i" -2.544856576662887e-10
"Vn_VDD:pwr" -3.053827891995464e-10
"Vn_Z:v" 0.000000000000000e+00
"Vn_Z:i" -1.162926573769399e-17
"Vn_Z:pwr" -0.000000000000000e+00
"n_Z" 1.199999494854729e+00
"n_D1" 0.000000000000000e+00
"n_SD" 1.200000000000000e+00
"Vn_D1:n" -7.517020206426479e-14
"Vn_D1:p" 7.517020206426479e-14
"Vn_GND:n" -2.548661417919722e-10
"Vn_GND:p" 2.548661417919722e-10
"Vn_SD:n" 5.105715959782416e-13
"Vn_SD:p" -5.105715959782416e-13
"Vn_VDD:n" 2.544856576662887e-10
"Vn_VDD:p" -2.544856576662887e-10
"Vn_Z:n" 1.162926573769399e-17
"Vn_Z:p" -1.162926573769399e-17
"time" 3.150000000000003e-09
"Vn_D1:v" 0.000000000000000e+00
"Vn_D1:i" 7.517113860731100e-14
"Vn_D1:pwr" 0.000000000000000e+00
"Vn_GND:v" 0.000000000000000e+00
"Vn_GND:i" 2.548661421303492e-10
"Vn_GND:pwr" 0.000000000000000e+00
"Vn_SD:v" 0.000000000000000e+00
"Vn_SD:i" -5.105703525314638e-13
"Vn_SD:pwr" -0.000000000000000e+00
"Vn_VDD:v" 1.200000000000000e+00
"Vn_VDD:i" -2.544856797215123e-10
"Vn_VDD:pwr" -3.053828156658148e-10
"Vn_Z:v" 0.000000000000000e+00
"Vn_Z:i" 1.405237955729914e-18
"Vn_Z:pwr" 0.000000000000000e+00
"n_Z" 1.199999494854642e+00
"n_D1" 0.000000000000000e+00
"n_SD" 1.200000000000000e+00
"Vn_D1:n" -7.517113860731100e-14
"Vn_D1:p" 7.517113860731100e-14
"Vn_GND:n" -2.548661421303492e-10
"Vn_GND:p" 2.548661421303492e-10
"Vn_SD:n" 5.105703525314638e-13
"Vn_SD:p" -5.105703525314638e-13
"Vn_VDD:n" 2.544856797215123e-10
"Vn_VDD:p" -2.544856797215123e-10
"Vn_Z:n" -1.405237955729914e-18
"Vn_Z:p" 1.405237955729914e-18
"time" 3.310000000000005e-09
"Vn_D1:v" 0.000000000000000e+00
"Vn_D1:i" 7.517140066390407e-14
"Vn_D1:pwr" 0.000000000000000e+00
"Vn_GND:v" 0.000000000000000e+00
"Vn_GND:i" 2.548661333790124e-10
"Vn_GND:pwr" 0.000000000000000e+00
"Vn_SD:v" 0.000000000000000e+00
"Vn_SD:i" -5.105702707744849e-13
"Vn_SD:pwr" -0.000000000000000e+00
"Vn_VDD:v" 1.200000000000000e+00
"Vn_VDD:i" -2.544856644291755e-10
"Vn_VDD:pwr" -3.053827973150106e-10
"Vn_Z:v" 0.000000000000000e+00
"Vn_Z:i" 1.226367440703703e-18
"Vn_Z:pwr" 0.000000000000000e+00
"n_Z" 1.199999494854687e+00
"n_D1" 0.000000000000000e+00
"n_SD" 1.200000000000000e+00
"Vn_D1:n" -7.517140066390407e-14
"Vn_D1:p" 7.517140066390407e-14
"Vn_GND:n" -2.548661333790124e-10
"Vn_GND:p" 2.548661333790124e-10
"Vn_SD:n" 5.105702707744849e-13
"Vn_SD:p" -5.105702707744849e-13
"Vn_VDD:n" 2.544856644291755e-10
"Vn_VDD:p" -2.544856644291755e-10
"Vn_Z:n" -1.226367440703703e-18
"Vn_Z:p" 1.226367440703703e-18
"time" 3.630000000000011e-09
"Vn_D1:v" 0.000000000000000e+00
"Vn_D1:i" 7.517124835391220e-14
"Vn_D1:pwr" 0.000000000000000e+00
"Vn_GND:v" 0.000000000000000e+00
"Vn_GND:i" 2.548661150521082e-10
"Vn_GND:pwr" 0.000000000000000e+00
"Vn_SD:v" 0.000000000000000e+00
"Vn_SD:i" -5.105702320084338e-13
"Vn_SD:pwr" -0.000000000000000e+00
"Vn_VDD:v" 1.200000000000000e+00
"Vn_VDD:i" -2.544856527468884e-10
"Vn_VDD:pwr" -3.053827832962661e-10
"Vn_Z:v" 0.000000000000000e+00
"Vn_Z:i" 8.273105218201705e-19
"Vn_Z:pwr" 0.000000000000000e+00
"n_Z" 1.199999494854757e+00
"n_D1" 0.000000000000000e+00
"n_SD" 1.200000000000000e+00
"Vn_D1:n" -7.517124835391220e-14
"Vn_D1:p" 7.517124835391220e-14
"Vn_GND:n" -2.548661150521082e-10
"Vn_GND:p" 2.548661150521082e-10
"Vn_SD:n" 5.105702320084338e-13
"Vn_SD:p" -5.105702320084338e-13
"Vn_VDD:n" 2.544856527468884e-10
"Vn_VDD:p" -2.544856527468884e-10
"Vn_Z:n" -8.273105218201705e-19
"Vn_Z:p" 8.273105218201705e-19
"time" 4.270000000000022e-09
"Vn_D1:v" 0.000000000000000e+00
"Vn_D1:i" 7.517143081544104e-14
"Vn_D1:pwr" 0.000000000000000e+00
"Vn_GND:v" 0.000000000000000e+00
"Vn_GND:i" 2.548660776338167e-10
"Vn_GND:pwr" 0.000000000000000e+00
"Vn_SD:v" 0.000000000000000e+00
"Vn_SD:i" -5.105702042314966e-13
"Vn_SD:pwr" -0.000000000000000e+00
"Vn_VDD:v" 1.200000000000000e+00
"Vn_VDD:i" -2.544856081873196e-10
"Vn_VDD:pwr" -3.053827298247835e-10
"Vn_Z:v" 0.000000000000000e+00
"Vn_Z:i" 1.695776855348891e-18
"Vn_Z:pwr" 0.000000000000000e+00
"n_Z" 1.199999494854929e+00
"n_D1" 0.000000000000000e+00
"n_SD" 1.200000000000000e+00
"Vn_D1:n" -7.517143081544104e-14
"Vn_D1:p" 7.517143081544104e-14
"Vn_GND:n" -2.548660776338167e-10
"Vn_GND:p" 2.548660776338167e-10
"Vn_SD:n" 5.105702042314966e-13
"Vn_SD:p" -5.105702042314966e-13
"Vn_VDD:n" 2.544856081873196e-10
"Vn_VDD:p" -2.544856081873196e-10
"Vn_Z:n" -1.695776855348891e-18
"Vn_Z:p" 1.695776855348891e-18
"time" 5.050000000000022e-09
"Vn_D1:v" 0.000000000000000e+00
"Vn_D1:i" 7.517123599480349e-14
"Vn_D1:pwr" 0.000000000000000e+00
"Vn_GND:v" 0.000000000000000e+00
"Vn_GND:i" 2.548660323811291e-10
"Vn_GND:pwr" 0.000000000000000e+00
"Vn_SD:v" 0.000000000000000e+00
"Vn_SD:i" -5.105702993376238e-13
"Vn_SD:pwr" -0.000000000000000e+00
"Vn_VDD:v" 1.200000000000000e+00
"Vn_VDD:i" -2.544855746458163e-10
"Vn_VDD:pwr" -3.053826895749796e-10
"Vn_Z:v" 0.000000000000000e+00
"Vn_Z:i" 4.023672253375184e-19
"Vn_Z:pwr" 0.000000000000000e+00
"n_Z" 1.199999494855103e+00
"n_D1" 0.000000000000000e+00
"n_SD" 1.200000000000000e+00
"Vn_D1:n" -7.517123599480349e-14
"Vn_D1:p" 7.517123599480349e-14
"Vn_GND:n" -2.548660323811291e-10
"Vn_GND:p" 2.548660323811291e-10
"Vn_SD:n" 5.105702993376238e-13
"Vn_SD:p" -5.105702993376238e-13
"Vn_VDD:n" 2.544855746458163e-10
"Vn_VDD:p" -2.544855746458163e-10
"Vn_Z:n" -4.023672253375184e-19
"Vn_Z:p" 4.023672253375184e-19
"time" 5.830000000000022e-09
"Vn_D1:v" 0.000000000000000e+00
"Vn_D1:i" 7.517146398917303e-14
"Vn_D1:pwr" 0.000000000000000e+00
"Vn_GND:v" 0.000000000000000e+00
"Vn_GND:i" 2.548659874833222e-10
"Vn_GND:pwr" 0.000000000000000e+00
"Vn_SD:v" 0.000000000000000e+00
"Vn_SD:i" -5.105701014950979e-13
"Vn_SD:pwr" -0.000000000000000e+00
"Vn_VDD:v" 1.200000000000000e+00
"Vn_VDD:i" -2.544855099609888e-10
"Vn_VDD:pwr" -3.053826119531866e-10
"Vn_Z:v" 0.000000000000000e+00
"Vn_Z:i" 2.427515412646960e-18
"Vn_Z:pwr" 0.000000000000000e+00
"n_Z" 1.199999494855338e+00
"n_D1" 0.000000000000000e+00
"n_SD" 1.200000000000000e+00
"Vn_D1:n" -7.517146398917303e-14
"Vn_D1:p" 7.517146398917303e-14
"Vn_GND:n" -2.548659874833222e-10
"Vn_GND:p" 2.548659874833222e-10
"Vn_SD:n" 5.105701014950979e-13
"Vn_SD:p" -5.105701014950979e-13
"Vn_VDD:n" 2.544855099609888e-10
"Vn_VDD:p" -2.544855099609888e-10
"Vn_Z:n" -2.427515412646960e-18
"Vn_Z:p" 2.427515412646960e-18
"time" 6.010000000000000e-09
"Vn_D1:v" 0.000000000000000e+00
"Vn_D1:i" 7.517103470149890e-14
"Vn_D1:pwr" 0.000000000000000e+00
"Vn_GND:v" 0.000000000000000e+00
"Vn_GND:i" 2.548659754424207e-10
"Vn_GND:pwr" 0.000000000000000e+00
"Vn_SD:v" 0.000000000000000e+00
"Vn_SD:i" -5.105707084969814e-13
"Vn_SD:pwr" -0.000000000000000e+00
"Vn_VDD:v" 1.200000000000000e+00
"Vn_VDD:i" -2.544855184767845e-10
"Vn_VDD:pwr" -3.053826221721413e-10
"Vn_Z:v" 0.000000000000000e+00
"Vn_Z:i" -1.802687078455842e-18
"Vn_Z:pwr" -0.000000000000000e+00
"n_Z" 1.199999494855350e+00
"n_D1" 0.000000000000000e+00
"n_SD" 1.200000000000000e+00
"Vn_D1:n" -7.517103470149890e-14
"Vn_D1:p" 7.517103470149890e-14
"Vn_GND:n" -2.548659754424207e-10
"Vn_GND:p" 2.548659754424207e-10
"Vn_SD:n" 5.105707084969814e-13
"Vn_SD:p" -5.105707084969814e-13
"Vn_VDD:n" 2.544855184767845e-10
"Vn_VDD:p" -2.544855184767845e-10
"Vn_Z:n" 1.802687078455842e-18
"Vn_Z:p" -1.802687078455842e-18
"time" 6.019999479700000e-09
"Vn_D1:v" 0.000000000000000e+00
"Vn_D1:i" 7.517115944486210e-14
"Vn_D1:pwr" 0.000000000000000e+00
"Vn_GND:v" 0.000000000000000e+00
"Vn_GND:i" 2.548659761407059e-10
"Vn_GND:pwr" 0.000000000000000e+00
"Vn_SD:v" 0.000000000000000e+00
"Vn_SD:i" -5.105700015030811e-13
"Vn_SD:pwr" -0.000000000000000e+00
"Vn_VDD:v" 1.200000000000000e+00
"Vn_VDD:i" -2.544855112303432e-10
"Vn_VDD:pwr" -3.053826134764118e-10
"Vn_Z:v" 0.000000000000000e+00
"Vn_Z:i" 2.402685672492979e-18
"Vn_Z:pwr" 0.000000000000000e+00
"n_Z" 1.199999494855355e+00
"n_D1" 0.000000000000000e+00
"n_SD" 1.200000000000000e+00
"Vn_D1:n" -7.517115944486210e-14
"Vn_D1:p" 7.517115944486210e-14
"Vn_GND:n" -2.548659761407059e-10
"Vn_GND:p" 2.548659761407059e-10
"Vn_SD:n" 5.105700015030811e-13
"Vn_SD:p" -5.105700015030811e-13
"Vn_VDD:n" 2.544855112303432e-10
"Vn_VDD:p" -2.544855112303432e-10
"Vn_Z:n" -2.402685672492979e-18
"Vn_Z:p" 2.402685672492979e-18
"time" 6.020000000000000e-09
"Vn_D1:v" 0.000000000000000e+00
"Vn_D1:i" -5.305157157095030e-07
"Vn_D1:pwr" -0.000000000000000e+00
"Vn_GND:v" 0.000000000000000e+00
"Vn_GND:i" 9.544344643331700e-08
"Vn_GND:pwr" 0.000000000000000e+00
"Vn_SD:v" 0.000000000000000e+00
"Vn_SD:i" 5.429814471696392e-11
"Vn_SD:pwr" 0.000000000000000e+00
"Vn_VDD:v" 1.200000000000000e+00
"Vn_VDD:i" 4.350173510572725e-07
"Vn_VDD:pwr" 5.220208212687270e-07
"Vn_Z:v" 0.000000000000000e+00
"Vn_Z:i" 5.654323844645491e-13
"Vn_Z:pwr" 0.000000000000000e+00
"n_Z" 1.199999494855418e+00
"n_D1" 2.456516759776461e-07
"n_SD" 1.200000000000000e+00
"Vn_D1:n" 5.305157157095030e-07
"Vn_D1:p" -5.305157157095030e-07
"Vn_GND:n" -9.544344643331700e-08
"Vn_GND:p" 9.544344643331700e-08
"Vn_SD:n" -5.429814471696392e-11
"Vn_SD:p" 5.429814471696392e-11
"Vn_VDD:n" -4.350173510572725e-07
"Vn_VDD:p" 4.350173510572725e-07
"Vn_Z:n" -5.654323844645491e-13
"Vn_Z:p" 5.654323844645491e-13
"time" 6.020001040600000e-09
"Vn_D1:v" 0.000000000000000e+00
"Vn_D1:i" -5.317631844644364e-07
"Vn_D1:pwr" -0.000000000000000e+00
"Vn_GND:v" 0.000000000000000e+00
"Vn_GND:i" 9.565916430404775e-08
"Vn_GND:pwr" 0.000000000000000e+00
"Vn_SD:v" 0.000000000000000e+00
"Vn_SD:i" 1.632129131405324e-10
"Vn_SD:pwr" 0.000000000000000e+00
"Vn_VDD:v" 1.200000000000000e+00
"Vn_VDD:i" 4.359368637960302e-07
"Vn_VDD:pwr" 5.231242365552362e-07
"Vn_Z:v" 0.000000000000000e+00
"Vn_Z:i" 3.887270082539212e-12
"Vn_Z:pwr" 0.000000000000000e+00
"n_Z" 1.199999494856278e+00
"n_D1" 7.369550279329381e-07
"n_SD" 1.200000000000000e+00
"Vn_D1:n" 5.317631844644364e-07
"Vn_D1:p" -5.317631844644364e-07
"Vn_GND:n" -9.565916430404775e-08
"Vn_GND:p" 9.565916430404775e-08
"Vn_SD:n" -1.632129131405324e-10
"Vn_SD:p" 1.632129131405324e-10
"Vn_VDD:n" -4.359368637960302e-07
"Vn_VDD:p" 4.359368637960302e-07
"Vn_Z:n" -3.887270082539212e-12
"Vn_Z:p" 3.887270082539212e-12
"time" 6.020003121800001e-09
"Vn_D1:v" 0.000000000000000e+00
"Vn_D1:i" -5.342398275774953e-07
"Vn_D1:pwr" -0.000000000000000e+00
"Vn_GND:v" 0.000000000000000e+00
"Vn_GND:i" 9.608766104133631e-08
"Vn_GND:pwr" 0.000000000000000e+00
"Vn_SD:v" 0.000000000000000e+00
"Vn_SD:i" 3.796425331744937e-10
"Vn_SD:pwr" 0.000000000000000e+00
"Vn_VDD:v" 1.200000000000000e+00
"Vn_VDD:i" 4.377576952794817e-07
"Vn_VDD:pwr" 5.253092343353780e-07
"Vn_Z:v" 0.000000000000000e+00
"Vn_Z:i" 1.477545198664047e-11
"Vn_Z:pwr" 0.000000000000000e+00
"n_Z" 1.199999494860411e+00
"n_D1" 1.719561731843522e-06
"n_SD" 1.200000000000000e+00
"Vn_D1:n" 5.342398275774953e-07
"Vn_D1:p" -5.342398275774953e-07
"Vn_GND:n" -9.608766104133631e-08
"Vn_GND:p" 9.608766104133631e-08
"Vn_SD:n" -3.796425331744937e-10
"Vn_SD:p" 3.796425331744937e-10
"Vn_VDD:n" -4.377576952794817e-07
"Vn_VDD:p" 4.377576952794817e-07
"Vn_Z:n" -1.477545198664047e-11
"Vn_Z:p" 1.477545198664047e-11
"time" 6.020007284200001e-09
"Vn_D1:v" 0.000000000000000e+00
"Vn_D1:i" -5.390851919623881e-07
"Vn_D1:pwr" -0.000000000000000e+00
"Vn_GND:v" 0.000000000000000e+00
"Vn_GND:i" 9.692721022620769e-08
"Vn_GND:pwr" 0.000000000000000e+00
"Vn_SD:v" 0.000000000000000e+00
"Vn_SD:i" 8.041907635654030e-10
"Vn_SD:pwr" 0.000000000000000e+00
"Vn_VDD:v" 1.200000000000000e+00
"Vn_VDD:i" 4.412932776964168e-07
"Vn_VDD:pwr" 5.295519332357000e-07
"Vn_Z:v" 0.000000000000000e+00
"Vn_Z:i" 6.045661619780585e-11
"Vn_Z:pwr" 0.000000000000000e+00
"n_Z" 1.199999494893724e+00
"n_D1" 3.684775139664691e-06
"n_SD" 1.200000000000000e+00
"Vn_D1:n" 5.390851919623881e-07
"Vn_D1:p" -5.390851919623881e-07
"Vn_GND:n" -9.692721022620769e-08
"Vn_GND:p" 9.692721022620769e-08
"Vn_SD:n" -8.041907635654030e-10
"Vn_SD:p" 8.041907635654030e-10
"Vn_VDD:n" -4.412932776964168e-07
"Vn_VDD:p" 4.412932776964168e-07
"Vn_Z:n" -6.045661619780585e-11
"Vn_Z:p" 6.045661619780585e-11
"time" 6.020015609000002e-09
"Vn_D1:v" 0.000000000000000e+00
"Vn_D1:i" -5.483629518466649e-07
"Vn_D1:pwr" -0.000000000000000e+00
"Vn_GND:v" 0.000000000000000e+00
"Vn_GND:i" 9.853852343259821e-08
"Vn_GND:pwr" 0.000000000000000e+00
"Vn_SD:v" 0.000000000000000e+00
"Vn_SD:i" 1.620914604983951e-09
"Vn_SD:pwr" 0.000000000000000e+00
"Vn_VDD:v" 1.200000000000000e+00
"Vn_VDD:i" 4.479700577068251e-07
"Vn_VDD:pwr" 5.375640692481901e-07
"Vn_Z:v" 0.000000000000000e+00
"Vn_Z:i" 2.334026365946901e-10
"Vn_Z:pwr" 0.000000000000000e+00
"n_Z" 1.199999495153971e+00
"n_D1" 7.615201955307027e-06
"n_SD" 1.200000000000000e+00
"Vn_D1:n" 5.483629518466649e-07
"Vn_D1:p" -5.483629518466649e-07
"Vn_GND:n" -9.853852343259821e-08
"Vn_GND:p" 9.853852343259821e-08
"Vn_SD:n" -1.620914604983951e-09
"Vn_SD:p" 1.620914604983951e-09
"Vn_VDD:n" -4.479700577068251e-07
"Vn_VDD:p" 4.479700577068251e-07
"Vn_Z:n" -2.334026365946901e-10
"Vn_Z:p" 2.334026365946901e-10
"time" 6.020032258600003e-09
"Vn_D1:v" 0.000000000000000e+00
"Vn_D1:i" -5.654016977113228e-07
"Vn_D1:pwr" -0.000000000000000e+00
"Vn_GND:v" 0.000000000000000e+00
"Vn_GND:i" 1.015056199401668e-07
"Vn_GND:pwr" 0.000000000000000e+00
"Vn_SD:v" 0.000000000000000e+00
"Vn_SD:i" 3.131895283522948e-09
"Vn_SD:pwr" 0.000000000000000e+00
"Vn_VDD:v" 1.200000000000000e+00
"Vn_VDD:i" 4.599472869680616e-07
"Vn_VDD:pwr" 5.519367443616739e-07
"Vn_Z:v" 0.000000000000000e+00
"Vn_Z:i" 8.168391197185262e-10
"Vn_Z:pwr" 0.000000000000000e+00
"n_Z" 1.199999497014195e+00
"n_D1" 1.547605558659170e-05
"n_SD" 1.200000000000000e+00
"Vn_D1:n" 5.654016977113228e-07
"Vn_D1:p" -5.654016977113228e-07
"Vn_GND:n" -1.015056199401668e-07
"Vn_GND:p" 1.015056199401668e-07
"Vn_SD:n" -3.131895283522948e-09
"Vn_SD:p" 3.131895283522948e-09
"Vn_VDD:n" -4.599472869680616e-07
"Vn_VDD:p" 4.599472869680616e-07
"Vn_Z:n" -8.168391197185262e-10
"Vn_Z:p" 8.168391197185262e-10
"time" 6.020065557800006e-09
"Vn_D1:v" 0.000000000000000e+00
"Vn_D1:i" -5.817059171058472e-07
"Vn_D1:pwr" -0.000000000000000e+00
"Vn_GND:v" 0.000000000000000e+00
"Vn_GND:i" 1.065988570401398e-07
"Vn_GND:pwr" 0.000000000000000e+00
"Vn_SD:v" 0.000000000000000e+00
"Vn_SD:i" 5.728951193321352e-09
"Vn_SD:pwr" 0.000000000000000e+00
"Vn_VDD:v" 1.200000000000000e+00
"Vn_VDD:i" 4.668788485182514e-07
"Vn_VDD:pwr" 5.602546182219016e-07
"Vn_Z:v" 0.000000000000000e+00
"Vn_Z:i" 2.499206971691339e-09
"Vn_Z:pwr" 0.000000000000000e+00
"n_Z" 1.199999508761182e+00
"n_D1" 3.119776284916105e-05
"n_SD" 1.200000000000000e+00
"Vn_D1:n" 5.817059171058472e-07
"Vn_D1:p" -5.817059171058472e-07
"Vn_GND:n" -1.065988570401398e-07
"Vn_GND:p" 1.065988570401398e-07
"Vn_SD:n" -5.728951193321352e-09
"Vn_SD:p" 5.728951193321352e-09
"Vn_VDD:n" -4.668788485182514e-07
"Vn_VDD:p" 4.668788485182514e-07
"Vn_Z:n" -2.499206971691339e-09
"Vn_Z:p" 2.499206971691339e-09
"time" 6.020132156200012e-09
"Vn_D1:v" 0.000000000000000e+00
"Vn_D1:i" -6.292975964530201e-07
"Vn_D1:pwr" -0.000000000000000e+00
"Vn_GND:v" 0.000000000000000e+00
"Vn_GND:i" 1.140900114180604e-07
"Vn_GND:pwr" 0.000000000000000e+00
"Vn_SD:v" 0.000000000000000e+00
"Vn_SD:i" 9.616505018830009e-09
"Vn_SD:pwr" 0.000000000000000e+00
"Vn_VDD:v" 1.200000000000000e+00
"Vn_VDD:i" 4.992558117075410e-07
"Vn_VDD:pwr" 5.991069740490491e-07
"Vn_Z:v" 0.000000000000000e+00
"Vn_Z:i" 6.335211804276093e-09
"Vn_Z:pwr" 0.000000000000000e+00
"n_Z" 1.199999571352475e+00
"n_D1" 6.264117737429975e-05
"n_SD" 1.200000000000000e+00
"Vn_D1:n" 6.292975964530201e-07
"Vn_D1:p" -6.292975964530201e-07
"Vn_GND:n" -1.140900114180604e-07
"Vn_GND:p" 1.140900114180604e-07
"Vn_SD:n" -9.616505018830009e-09
"Vn_SD:p" 9.616505018830009e-09
"Vn_VDD:n" -4.992558117075410e-07
"Vn_VDD:p" 4.992558117075410e-07
"Vn_Z:n" -6.335211804276093e-09
"Vn_Z:p" 6.335211804276093e-09
"time" 6.020265353000023e-09
"Vn_D1:v" 0.000000000000000e+00
"Vn_D1:i" -6.664211698644788e-07
"Vn_D1:pwr" -0.000000000000000e+00
"Vn_GND:v" 0.000000000000000e+00
"Vn_GND:i" 1.226310089674347e-07
"Vn_GND:pwr" 0.000000000000000e+00
"Vn_SD:v" 0.000000000000000e+00
"Vn_SD:i" 1.410842936779297e-08
"Vn_SD:pwr" 0.000000000000000e+00