HEADER
"PSFversion" "1.00"
"simulator" "spectre"
"version" "10.1.1.164.isr11"
"date" "3:01:57 PM, Fri Oct 17, 2014"
"design" "* Spectre Timing Acquisition"
"analysis type" "tran"
"analysis name" "transient1-009_transient1"
"analysis description" "Transient Analysis `transient1-009_transient1': time = (0 s -> 39 ns)"
"xVecSorted" "ascending"
"tolerance.relative" 0.00100000
"start" 0.00000
"outputstart" 0.00000
"stop" 3.90000e-08
"step" 3.90000e-11
"maxstep" 7.80000e-10
"ic" "all"
"useprevic" "no"
"skipdc" "no"
"reltol" 0.00100000
"abstol(V)" 1.00000e-06
"abstol(I)" 1.00000e-12
"temp" 25.0000
"tnom" 27.0000
"tempeffects" "all"
"errpreset" "moderate"
"method" "traponly"
"lteratio" 3.50000
"relref" "sigglobal"
"cmin" 0.00000
"gmin" 1.00000e-12
TYPE
"sweep" FLOAT DOUBLE PROP(
"key" "sweep"
)
"Tau" FLOAT DOUBLE PROP(
"units" "N*m"
"key" "node"
"tolerance" 1.00000e-06
)
"Alpha" FLOAT DOUBLE PROP(
"units" "rads/s^2"
"key" "node"
"tolerance" 1.00000e-06
)
"Omega" FLOAT DOUBLE PROP(
"units" "rads/s"
"key" "node"
"tolerance" 1.00000e-06
)
"Theta" FLOAT DOUBLE PROP(
"units" "rads"
"key" "node"
"tolerance" 1.00000e-06
)
"F" FLOAT DOUBLE PROP(
"units" "N"
"key" "node"
"tolerance" 1.00000e-06
)
"Imp" FLOAT DOUBLE PROP(
"units" "m/s^3"
"key" "node"
"tolerance" 1.00000e-06
)
"Acc" FLOAT DOUBLE PROP(
"units" "m/s^2"
"key" "node"
"tolerance" 1.00000e-06
)
"Vel" FLOAT DOUBLE PROP(
"units" "m/s"
"key" "node"
"tolerance" 1.00000e-06
)
"Pos" FLOAT DOUBLE PROP(
"units" "m"
"key" "node"
"tolerance" 1.00000e-06
)
"Phi" FLOAT DOUBLE PROP(
"units" "Wb"
"key" "node"
"tolerance" 1.00000e-09
)
"Q" FLOAT DOUBLE PROP(
"units" "coul"
"key" "node"
"tolerance" 1.00000e-14
)
"V" FLOAT DOUBLE PROP(
"units" "V"
"key" "node"
"tolerance" 1.00000e-06
)
"I" FLOAT DOUBLE PROP(
"units" "A"
"key" "branch"
"tolerance" 1.00000e-12
)
"MMF" FLOAT DOUBLE PROP(
"units" "A*turn"
"key" "node"
"tolerance" 1.00000e-12
)
"Wb" FLOAT DOUBLE PROP(
"units" "Wb"
"key" "node"
"tolerance" 1.00000e-09
)
"Temp" FLOAT DOUBLE PROP(
"units" "C"
"key" "node"
"tolerance" 0.000100000
)
"Pwr" FLOAT DOUBLE PROP(
"units" "W"
"key" "node"
"tolerance" 1.00000e-09
)
"U" FLOAT DOUBLE PROP(
"units" ""
"key" "node"
"tolerance" 1.00000e-06
)
"V/Sec" FLOAT DOUBLE PROP(
"units" "V/s"
"key" "node"
"tolerance" 0.000100000
)
"I/Sec" FLOAT DOUBLE PROP(
"units" "A/s"
"key" "node"
"tolerance" 1.00000e-06
)
"1/Sec" FLOAT DOUBLE PROP(
"units" "1/s"
"key" "node"
"tolerance" 0.000100000
)
"HOD" FLOAT DOUBLE PROP(
"units" ""
"key" "node"
"tolerance" 0.0100000
)
"A" FLOAT DOUBLE PROP(
"key" "inst"
)
"W" FLOAT DOUBLE PROP(
"key" "inst"
)
SWEEP
"time" "sweep" PROP(
"sweep_direction" 0
"units" "s"
"plot" 0
"grid" 1
)
TRACE
"Vn_D1:v" "V" PROP(
"units" "V"
)
"Vn_D1:i" "A" PROP(
"units" "A"
)
"Vn_D1:pwr" "W" PROP(
"units" "W"
)
"Vn_GND:v" "V" PROP(
"units" "V"
)
"Vn_GND:i" "A" PROP(
"units" "A"
)
"Vn_GND:pwr" "W" PROP(
"units" "W"
)
"Vn_SD:v" "V" PROP(
"units" "V"
)
"Vn_SD:i" "A" PROP(
"units" "A"
)
"Vn_SD:pwr" "W" PROP(
"units" "W"
)
"Vn_VDD:v" "V" PROP(
"units" "V"
)
"Vn_VDD:i" "A" PROP(
"units" "A"
)
"Vn_VDD:pwr" "W" PROP(
"units" "W"
)
"Vn_Z:v" "V" PROP(
"units" "V"
)
"Vn_Z:i" "A" PROP(
"units" "A"
)
"Vn_Z:pwr" "W" PROP(
"units" "W"
)
"n_Z" "V"
"n_D1" "V"
"n_SD" "V"
"Vn_D1:n" "I"
"Vn_D1:p" "I"
"Vn_GND:n" "I"
"Vn_GND:p" "I"
"Vn_SD:n" "I"
"Vn_SD:p" "I"
"Vn_VDD:n" "I"
"Vn_VDD:p" "I"
"Vn_Z:n" "I"
"Vn_Z:p" "I"
VALUE
"time" 0.000000000000000e+00
"Vn_D1:v" 0.000000000000000e+00
"Vn_D1:i" 7.517119452868265e-14
"Vn_D1:pwr" 0.000000000000000e+00
"Vn_GND:v" 0.000000000000000e+00
"Vn_GND:i" 2.548493107915442e-10
"Vn_GND:pwr" 0.000000000000000e+00
"Vn_SD:v" 0.000000000000000e+00
"Vn_SD:i" -5.105704018311278e-13
"Vn_SD:pwr" -0.000000000000000e+00
"Vn_VDD:v" 1.200000000000000e+00
"Vn_VDD:i" -2.544688430805071e-10
"Vn_VDD:pwr" -3.053626116966085e-10
"Vn_Z:v" 0.000000000000000e+00
"Vn_Z:i" 0.000000000000000e+00
"Vn_Z:pwr" 0.000000000000000e+00
"n_Z" 1.199999494927445e+00
"n_D1" 0.000000000000000e+00
"n_SD" 1.200000000000000e+00
"Vn_D1:n" -7.517119452868265e-14
"Vn_D1:p" 7.517119452868265e-14
"Vn_GND:n" -2.548493107915442e-10
"Vn_GND:p" 2.548493107915442e-10
"Vn_SD:n" 5.105704018311278e-13
"Vn_SD:p" -5.105704018311278e-13
"Vn_VDD:n" 2.544688430805071e-10
"Vn_VDD:p" -2.544688430805071e-10
"Vn_Z:n" 0.000000000000000e+00
"Vn_Z:p" 0.000000000000000e+00
"time" 3.900000000000000e-11
"Vn_D1:v" 0.000000000000000e+00
"Vn_D1:i" 7.484781124312614e-14
"Vn_D1:pwr" 0.000000000000000e+00
"Vn_GND:v" 0.000000000000000e+00
"Vn_GND:i" 2.548642668311067e-10
"Vn_GND:pwr" 0.000000000000000e+00
"Vn_SD:v" 0.000000000000000e+00
"Vn_SD:i" -5.109809290026194e-13
"Vn_SD:pwr" -0.000000000000000e+00
"Vn_VDD:v" 1.200000000000000e+00
"Vn_VDD:i" -2.544789732393905e-10
"Vn_VDD:pwr" -3.053747678872686e-10
"Vn_Z:v" 0.000000000000000e+00
"Vn_Z:i" -4.091969617547327e-15
"Vn_Z:pwr" -0.000000000000000e+00
"n_Z" 1.199999494888521e+00
"n_D1" 0.000000000000000e+00
"n_SD" 1.200000000000000e+00
"Vn_D1:n" -7.484781124312614e-14
"Vn_D1:p" 7.484781124312614e-14
"Vn_GND:n" -2.548642668311067e-10
"Vn_GND:p" 2.548642668311067e-10
"Vn_SD:n" 5.109809290026194e-13
"Vn_SD:p" -5.109809290026194e-13
"Vn_VDD:n" 2.544789732393905e-10
"Vn_VDD:p" -2.544789732393905e-10
"Vn_Z:n" 4.091969617547327e-15
"Vn_Z:p" -4.091969617547327e-15
"time" 1.170000000000000e-10
"Vn_D1:v" 0.000000000000000e+00
"Vn_D1:i" 7.504878230679814e-14
"Vn_D1:pwr" 0.000000000000000e+00
"Vn_GND:v" 0.000000000000000e+00
"Vn_GND:i" 2.548656989136540e-10
"Vn_GND:pwr" 0.000000000000000e+00
"Vn_SD:v" 0.000000000000000e+00
"Vn_SD:i" -5.107083230796259e-13
"Vn_SD:pwr" -0.000000000000000e+00
"Vn_VDD:v" 1.200000000000000e+00
"Vn_VDD:i" -2.544837169771167e-10
"Vn_VDD:pwr" -3.053804603725400e-10
"Vn_Z:v" 0.000000000000000e+00
"Vn_Z:i" -1.253892937659274e-15
"Vn_Z:pwr" -0.000000000000000e+00
"n_Z" 1.199999494864667e+00
"n_D1" 0.000000000000000e+00
"n_SD" 1.200000000000000e+00
"Vn_D1:n" -7.504878230679814e-14
"Vn_D1:p" 7.504878230679814e-14
"Vn_GND:n" -2.548656989136540e-10
"Vn_GND:p" 2.548656989136540e-10
"Vn_SD:n" 5.107083230796259e-13
"Vn_SD:p" -5.107083230796259e-13
"Vn_VDD:n" 2.544837169771167e-10
"Vn_VDD:p" -2.544837169771167e-10
"Vn_Z:n" 1.253892937659274e-15
"Vn_Z:p" -1.253892937659274e-15
"time" 2.730000000000000e-10
"Vn_D1:v" 0.000000000000000e+00
"Vn_D1:i" 7.521588338597395e-14
"Vn_D1:pwr" 0.000000000000000e+00
"Vn_GND:v" 0.000000000000000e+00
"Vn_GND:i" 2.548665458223142e-10
"Vn_GND:pwr" 0.000000000000000e+00
"Vn_SD:v" 0.000000000000000e+00
"Vn_SD:i" -5.105194027465903e-13
"Vn_SD:pwr" -0.000000000000000e+00
"Vn_VDD:v" 1.200000000000000e+00
"Vn_VDD:i" -2.544866480942954e-10
"Vn_VDD:pwr" -3.053839777131545e-10
"Vn_Z:v" 0.000000000000000e+00
"Vn_Z:i" 4.747994937012114e-16
"Vn_Z:pwr" 0.000000000000000e+00
"n_Z" 1.199999494849845e+00
"n_D1" 0.000000000000000e+00
"n_SD" 1.200000000000000e+00
"Vn_D1:n" -7.521588338597395e-14
"Vn_D1:p" 7.521588338597395e-14
"Vn_GND:n" -2.548665458223142e-10
"Vn_GND:p" 2.548665458223142e-10
"Vn_SD:n" 5.105194027465903e-13
"Vn_SD:p" -5.105194027465903e-13
"Vn_VDD:n" 2.544866480942954e-10
"Vn_VDD:p" -2.544866480942954e-10
"Vn_Z:n" -4.747994937012114e-16
"Vn_Z:p" 4.747994937012114e-16
"time" 5.850000000000002e-10
"Vn_D1:v" 0.000000000000000e+00
"Vn_D1:i" 7.514405116160763e-14
"Vn_D1:pwr" 0.000000000000000e+00
"Vn_GND:v" 0.000000000000000e+00
"Vn_GND:i" 2.548661449431956e-10
"Vn_GND:pwr" 0.000000000000000e+00
"Vn_SD:v" 0.000000000000000e+00
"Vn_SD:i" -5.106017974319959e-13
"Vn_SD:pwr" -0.000000000000000e+00
"Vn_VDD:v" 1.200000000000000e+00
"Vn_VDD:i" -2.544853226895951e-10
"Vn_VDD:pwr" -3.053823872275142e-10
"Vn_Z:v" 0.000000000000000e+00
"Vn_Z:i" -2.982579004210425e-16
"Vn_Z:pwr" -0.000000000000000e+00
"n_Z" 1.199999494856562e+00
"n_D1" 0.000000000000000e+00
"n_SD" 1.200000000000000e+00
"Vn_D1:n" -7.514405116160763e-14
"Vn_D1:p" 7.514405116160763e-14
"Vn_GND:n" -2.548661449431956e-10
"Vn_GND:p" 2.548661449431956e-10
"Vn_SD:n" 5.106017974319959e-13
"Vn_SD:p" -5.106017974319959e-13
"Vn_VDD:n" 2.544853226895951e-10
"Vn_VDD:p" -2.544853226895951e-10
"Vn_Z:n" 2.982579004210425e-16
"Vn_Z:p" -2.982579004210425e-16
"time" 1.209000000000000e-09
"Vn_D1:v" 0.000000000000000e+00
"Vn_D1:i" 7.519243488671667e-14
"Vn_D1:pwr" 0.000000000000000e+00
"Vn_GND:v" 0.000000000000000e+00
"Vn_GND:i" 2.548663737867122e-10
"Vn_GND:pwr" 0.000000000000000e+00
"Vn_SD:v" 0.000000000000000e+00
"Vn_SD:i" -5.105455802293461e-13
"Vn_SD:pwr" -0.000000000000000e+00
"Vn_VDD:v" 1.200000000000000e+00
"Vn_VDD:i" -2.544861891618003e-10
"Vn_VDD:pwr" -3.053834269941603e-10
"Vn_Z:v" 0.000000000000000e+00
"Vn_Z:i" 2.397503494187862e-16
"Vn_Z:pwr" 0.000000000000000e+00
"n_Z" 1.199999494852110e+00
"n_D1" 0.000000000000000e+00
"n_SD" 1.200000000000000e+00
"Vn_D1:n" -7.519243488671667e-14
"Vn_D1:p" 7.519243488671667e-14
"Vn_GND:n" -2.548663737867122e-10
"Vn_GND:p" 2.548663737867122e-10
"Vn_SD:n" 5.105455802293461e-13
"Vn_SD:p" -5.105455802293461e-13
"Vn_VDD:n" 2.544861891618003e-10
"Vn_VDD:p" -2.544861891618003e-10
"Vn_Z:n" -2.397503494187862e-16
"Vn_Z:p" 2.397503494187862e-16
"time" 1.989000000000000e-09
"Vn_D1:v" 0.000000000000000e+00
"Vn_D1:i" 7.515396285181380e-14
"Vn_D1:pwr" 0.000000000000000e+00
"Vn_GND:v" 0.000000000000000e+00
"Vn_GND:i" 2.548661119598157e-10
"Vn_GND:pwr" 0.000000000000000e+00
"Vn_SD:v" 0.000000000000000e+00
"Vn_SD:i" -5.105907402939575e-13
"Vn_SD:pwr" -0.000000000000000e+00
"Vn_VDD:v" 1.200000000000000e+00
"Vn_VDD:i" -2.544854101149287e-10
"Vn_VDD:pwr" -3.053824921379145e-10
"Vn_Z:v" 0.000000000000000e+00
"Vn_Z:i" -1.982696776593369e-16
"Vn_Z:pwr" -0.000000000000000e+00
"n_Z" 1.199999494856055e+00
"n_D1" 0.000000000000000e+00
"n_SD" 1.200000000000000e+00
"Vn_D1:n" -7.515396285181380e-14
"Vn_D1:p" 7.515396285181380e-14
"Vn_GND:n" -2.548661119598157e-10
"Vn_GND:p" 2.548661119598157e-10
"Vn_SD:n" 5.105907402939575e-13
"Vn_SD:p" -5.105907402939575e-13
"Vn_VDD:n" 2.544854101149287e-10
"Vn_VDD:p" -2.544854101149287e-10
"Vn_Z:n" 1.982696776593369e-16
"Vn_Z:p" -1.982696776593369e-16
"time" 2.769000000000001e-09
"Vn_D1:v" 0.000000000000000e+00
"Vn_D1:i" 7.518530089301442e-14
"Vn_D1:pwr" 0.000000000000000e+00
"Vn_GND:v" 0.000000000000000e+00
"Vn_GND:i" 2.548662466576318e-10
"Vn_GND:pwr" 0.000000000000000e+00
"Vn_SD:v" 0.000000000000000e+00
"Vn_SD:i" -5.105535484563398e-13
"Vn_SD:pwr" -0.000000000000000e+00
"Vn_VDD:v" 1.200000000000000e+00
"Vn_VDD:i" -2.544859708110313e-10
"Vn_VDD:pwr" -3.053831649732376e-10
"Vn_Z:v" 0.000000000000000e+00
"Vn_Z:i" 1.675363749479705e-16
"Vn_Z:pwr" 0.000000000000000e+00
"n_Z" 1.199999494853132e+00
"n_D1" 0.000000000000000e+00
"n_SD" 1.200000000000000e+00
"Vn_D1:n" -7.518530089301442e-14
"Vn_D1:p" 7.518530089301442e-14
"Vn_GND:n" -2.548662466576318e-10
"Vn_GND:p" 2.548662466576318e-10
"Vn_SD:n" 5.105535484563398e-13
"Vn_SD:p" -5.105535484563398e-13
"Vn_VDD:n" 2.544859708110313e-10
"Vn_VDD:p" -2.544859708110313e-10
"Vn_Z:n" -1.675363749479705e-16
"Vn_Z:p" 1.675363749479705e-16
"time" 3.000000000000000e-09
"Vn_D1:v" 0.000000000000000e+00
"Vn_D1:i" 7.516477069941966e-14
"Vn_D1:pwr" 0.000000000000000e+00
"Vn_GND:v" 0.000000000000000e+00
"Vn_GND:i" 2.548661074706085e-10
"Vn_GND:pwr" 0.000000000000000e+00
"Vn_SD:v" 0.000000000000000e+00
"Vn_SD:i" -5.105786523088463e-13
"Vn_SD:pwr" -0.000000000000000e+00
"Vn_VDD:v" 1.200000000000000e+00
"Vn_VDD:i" -2.544855482238100e-10
"Vn_VDD:pwr" -3.053826578685720e-10
"Vn_Z:v" 0.000000000000000e+00
"Vn_Z:i" -8.891979228103471e-17
"Vn_Z:pwr" -0.000000000000000e+00
"n_Z" 1.199999494855347e+00
"n_D1" 0.000000000000000e+00
"n_SD" 1.200000000000000e+00
"Vn_D1:n" -7.516477069941966e-14
"Vn_D1:p" 7.516477069941966e-14
"Vn_GND:n" -2.548661074706085e-10
"Vn_GND:p" 2.548661074706085e-10
"Vn_SD:n" 5.105786523088463e-13
"Vn_SD:p" -5.105786523088463e-13
"Vn_VDD:n" 2.544855482238100e-10
"Vn_VDD:p" -2.544855482238100e-10
"Vn_Z:n" 8.891979228103471e-17
"Vn_Z:p" -8.891979228103471e-17
"time" 3.010000000000000e-09
"Vn_D1:v" 0.000000000000000e+00
"Vn_D1:i" 7.516532481536998e-14
"Vn_D1:pwr" 0.000000000000000e+00
"Vn_GND:v" 0.000000000000000e+00
"Vn_GND:i" 2.548661176857030e-10
"Vn_GND:pwr" 0.000000000000000e+00
"Vn_SD:v" 0.000000000000000e+00
"Vn_SD:i" -5.105771104613523e-13
"Vn_SD:pwr" -0.000000000000000e+00
"Vn_VDD:v" 1.200000000000000e+00
"Vn_VDD:i" -2.544855708117870e-10
"Vn_VDD:pwr" -3.053826849741444e-10
"Vn_Z:v" 0.000000000000000e+00
"Vn_Z:i" -6.651944538438387e-17
"Vn_Z:pwr" -0.000000000000000e+00
"n_Z" 1.199999494855184e+00
"n_D1" 0.000000000000000e+00
"n_SD" 1.200000000000000e+00
"Vn_D1:n" -7.516532481536998e-14
"Vn_D1:p" 7.516532481536998e-14
"Vn_GND:n" -2.548661176857030e-10
"Vn_GND:p" 2.548661176857030e-10
"Vn_SD:n" 5.105771104613523e-13
"Vn_SD:p" -5.105771104613523e-13
"Vn_VDD:n" 2.544855708117870e-10
"Vn_VDD:p" -2.544855708117870e-10
"Vn_Z:n" 6.651944538438387e-17
"Vn_Z:p" -6.651944538438387e-17
"time" 3.030000000000000e-09
"Vn_D1:v" 0.000000000000000e+00
"Vn_D1:i" 7.516709331872219e-14
"Vn_D1:pwr" 0.000000000000000e+00
"Vn_GND:v" 0.000000000000000e+00
"Vn_GND:i" 2.548661285357407e-10
"Vn_GND:pwr" 0.000000000000000e+00
"Vn_SD:v" 0.000000000000000e+00
"Vn_SD:i" -5.105749069460827e-13
"Vn_SD:pwr" -0.000000000000000e+00
"Vn_VDD:v" 1.200000000000000e+00
"Vn_VDD:i" -2.544856104909061e-10
"Vn_VDD:pwr" -3.053827325890873e-10
"Vn_Z:v" 0.000000000000000e+00
"Vn_Z:i" -4.176670168693919e-17
"Vn_Z:pwr" -0.000000000000000e+00
"n_Z" 1.199999494854981e+00
"n_D1" 0.000000000000000e+00
"n_SD" 1.200000000000000e+00
"Vn_D1:n" -7.516709331872219e-14
"Vn_D1:p" 7.516709331872219e-14
"Vn_GND:n" -2.548661285357407e-10
"Vn_GND:p" 2.548661285357407e-10
"Vn_SD:n" 5.105749069460827e-13
"Vn_SD:p" -5.105749069460827e-13
"Vn_VDD:n" 2.544856104909061e-10
"Vn_VDD:p" -2.544856104909061e-10
"Vn_Z:n" 4.176670168693919e-17
"Vn_Z:p" -4.176670168693919e-17
"time" 3.070000000000001e-09
"Vn_D1:v" 0.000000000000000e+00
"Vn_D1:i" 7.517009729410262e-14
"Vn_D1:pwr" 0.000000000000000e+00
"Vn_GND:v" 0.000000000000000e+00
"Vn_GND:i" 2.548661414435464e-10
"Vn_GND:pwr" 0.000000000000000e+00
"Vn_SD:v" 0.000000000000000e+00
"Vn_SD:i" -5.105716342020082e-13
"Vn_SD:pwr" -0.000000000000000e+00
"Vn_VDD:v" 1.200000000000000e+00
"Vn_VDD:i" -2.544856598878813e-10
"Vn_VDD:pwr" -3.053827918654576e-10
"Vn_Z:v" 0.000000000000000e+00
"Vn_Z:i" -1.040986364634721e-17
"Vn_Z:pwr" -0.000000000000000e+00
"n_Z" 1.199999494854726e+00
"n_D1" 0.000000000000000e+00
"n_SD" 1.200000000000000e+00
"Vn_D1:n" -7.517009729410262e-14
"Vn_D1:p" 7.517009729410262e-14
"Vn_GND:n" -2.548661414435464e-10
"Vn_GND:p" 2.548661414435464e-10
"Vn_SD:n" 5.105716342020082e-13
"Vn_SD:p" -5.105716342020082e-13
"Vn_VDD:n" 2.544856598878813e-10
"Vn_VDD:p" -2.544856598878813e-10
"Vn_Z:n" 1.040986364634721e-17
"Vn_Z:p" -1.040986364634721e-17
"time" 3.150000000000003e-09
"Vn_D1:v" 0.000000000000000e+00
"Vn_D1:i" 7.517132259323400e-14
"Vn_D1:pwr" 0.000000000000000e+00
"Vn_GND:v" 0.000000000000000e+00
"Vn_GND:i" 2.548661424598161e-10
"Vn_GND:pwr" 0.000000000000000e+00
"Vn_SD:v" 0.000000000000000e+00
"Vn_SD:i" -5.105703266254773e-13
"Vn_SD:pwr" -0.000000000000000e+00
"Vn_VDD:v" 1.200000000000000e+00
"Vn_VDD:i" -2.544856783819357e-10
"Vn_VDD:pwr" -3.053828140583228e-10
"Vn_Z:v" 0.000000000000000e+00
"Vn_Z:i" 1.411203028744758e-18
"Vn_Z:pwr" 0.000000000000000e+00
"n_Z" 1.199999494854638e+00
"n_D1" 0.000000000000000e+00
"n_SD" 1.200000000000000e+00
"Vn_D1:n" -7.517132259323400e-14
"Vn_D1:p" 7.517132259323400e-14
"Vn_GND:n" -2.548661424598161e-10
"Vn_GND:p" 2.548661424598161e-10
"Vn_SD:n" 5.105703266254773e-13
"Vn_SD:p" -5.105703266254773e-13
"Vn_VDD:n" 2.544856783819357e-10
"Vn_VDD:p" -2.544856783819357e-10
"Vn_Z:n" -1.411203028744758e-18
"Vn_Z:p" 1.411203028744758e-18
"time" 3.310000000000005e-09
"Vn_D1:v" 0.000000000000000e+00
"Vn_D1:i" 7.517115736854826e-14
"Vn_D1:pwr" 0.000000000000000e+00
"Vn_GND:v" 0.000000000000000e+00
"Vn_GND:i" 2.548661330710853e-10
"Vn_GND:pwr" 0.000000000000000e+00
"Vn_SD:v" 0.000000000000000e+00
"Vn_SD:i" -5.105702631411000e-13
"Vn_SD:pwr" -0.000000000000000e+00
"Vn_VDD:v" 1.200000000000000e+00
"Vn_VDD:i" -2.544856662570250e-10
"Vn_VDD:pwr" -3.053827995084300e-10
"Vn_Z:v" 0.000000000000000e+00
"Vn_Z:i" 1.011648592256356e-18
"Vn_Z:pwr" 0.000000000000000e+00
"n_Z" 1.199999494854686e+00
"n_D1" 0.000000000000000e+00
"n_SD" 1.200000000000000e+00
"Vn_D1:n" -7.517115736854826e-14
"Vn_D1:p" 7.517115736854826e-14
"Vn_GND:n" -2.548661330710853e-10
"Vn_GND:p" 2.548661330710853e-10
"Vn_SD:n" 5.105702631411000e-13
"Vn_SD:p" -5.105702631411000e-13
"Vn_VDD:n" 2.544856662570250e-10
"Vn_VDD:p" -2.544856662570250e-10
"Vn_Z:n" -1.011648592256356e-18
"Vn_Z:p" 1.011648592256356e-18
"time" 3.630000000000011e-09
"Vn_D1:v" 0.000000000000000e+00
"Vn_D1:i" 7.517143733035116e-14
"Vn_D1:pwr" 0.000000000000000e+00
"Vn_GND:v" 0.000000000000000e+00
"Vn_GND:i" 2.548661148013575e-10
"Vn_GND:pwr" 0.000000000000000e+00
"Vn_SD:v" 0.000000000000000e+00
"Vn_SD:i" -5.105703414025967e-13
"Vn_SD:pwr" -0.000000000000000e+00
"Vn_VDD:v" 1.200000000000000e+00
"Vn_VDD:i" -2.544856504030136e-10
"Vn_VDD:pwr" -3.053827804836164e-10
"Vn_Z:v" 0.000000000000000e+00
"Vn_Z:i" 9.005240206956639e-19
"Vn_Z:pwr" 0.000000000000000e+00
"n_Z" 1.199999494854760e+00
"n_D1" 0.000000000000000e+00
"n_SD" 1.200000000000000e+00
"Vn_D1:n" -7.517143733035116e-14
"Vn_D1:p" 7.517143733035116e-14
"Vn_GND:n" -2.548661148013575e-10
"Vn_GND:p" 2.548661148013575e-10
"Vn_SD:n" 5.105703414025967e-13
"Vn_SD:p" -5.105703414025967e-13
"Vn_VDD:n" 2.544856504030136e-10
"Vn_VDD:p" -2.544856504030136e-10
"Vn_Z:n" -9.005240206956639e-19
"Vn_Z:p" 9.005240206956639e-19
"time" 4.270000000000022e-09
"Vn_D1:v" 0.000000000000000e+00
"Vn_D1:i" 7.517114377471060e-14
"Vn_D1:pwr" 0.000000000000000e+00
"Vn_GND:v" 0.000000000000000e+00
"Vn_GND:i" 2.548660773039365e-10
"Vn_GND:pwr" 0.000000000000000e+00
"Vn_SD:v" 0.000000000000000e+00
"Vn_SD:i" -5.105702120890126e-13
"Vn_SD:pwr" -0.000000000000000e+00
"Vn_VDD:v" 1.200000000000000e+00
"Vn_VDD:i" -2.544856106982000e-10
"Vn_VDD:pwr" -3.053827328378401e-10
"Vn_Z:v" 0.000000000000000e+00
"Vn_Z:i" 1.218548309096051e-18
"Vn_Z:pwr" 0.000000000000000e+00
"n_Z" 1.199999494854926e+00
"n_D1" 0.000000000000000e+00
"n_SD" 1.200000000000000e+00
"Vn_D1:n" -7.517114377471060e-14
"Vn_D1:p" 7.517114377471060e-14
"Vn_GND:n" -2.548660773039365e-10
"Vn_GND:p" 2.548660773039365e-10
"Vn_SD:n" 5.105702120890126e-13
"Vn_SD:p" -5.105702120890126e-13
"Vn_VDD:n" 2.544856106982000e-10
"Vn_VDD:p" -2.544856106982000e-10
"Vn_Z:n" -1.218548309096051e-18
"Vn_Z:p" 1.218548309096051e-18
"time" 5.050000000000022e-09
"Vn_D1:v" 0.000000000000000e+00
"Vn_D1:i" 7.517144547461551e-14
"Vn_D1:pwr" 0.000000000000000e+00
"Vn_GND:v" 0.000000000000000e+00
"Vn_GND:i" 2.548660322021538e-10
"Vn_GND:pwr" 0.000000000000000e+00
"Vn_SD:v" 0.000000000000000e+00
"Vn_SD:i" -5.105703704338143e-13
"Vn_SD:pwr" -0.000000000000000e+00
"Vn_VDD:v" 1.200000000000000e+00
"Vn_VDD:i" -2.544855658949397e-10
"Vn_VDD:pwr" -3.053826790739276e-10
"Vn_Z:v" 0.000000000000000e+00
"Vn_Z:i" 7.481244253902199e-19
"Vn_Z:pwr" 0.000000000000000e+00
"n_Z" 1.199999494855113e+00
"n_D1" 0.000000000000000e+00
"n_SD" 1.200000000000000e+00
"Vn_D1:n" -7.517144547461551e-14
"Vn_D1:p" 7.517144547461551e-14
"Vn_GND:n" -2.548660322021538e-10
"Vn_GND:p" 2.548660322021538e-10
"Vn_SD:n" 5.105703704338143e-13
"Vn_SD:p" -5.105703704338143e-13
"Vn_VDD:n" 2.544855658949397e-10
"Vn_VDD:p" -2.544855658949397e-10
"Vn_Z:n" -7.481244253902199e-19
"Vn_Z:p" 7.481244253902199e-19
"time" 5.830000000000022e-09
"Vn_D1:v" 0.000000000000000e+00
"Vn_D1:i" 7.517106669971591e-14
"Vn_D1:pwr" 0.000000000000000e+00
"Vn_GND:v" 0.000000000000000e+00
"Vn_GND:i" 2.548659864363900e-10
"Vn_GND:pwr" 0.000000000000000e+00
"Vn_SD:v" 0.000000000000000e+00
"Vn_SD:i" -5.105702653873859e-13
"Vn_SD:pwr" -0.000000000000000e+00
"Vn_VDD:v" 1.200000000000000e+00
"Vn_VDD:i" -2.544855140646752e-10
"Vn_VDD:pwr" -3.053826168776102e-10
"Vn_Z:v" 0.000000000000000e+00
"Vn_Z:i" 1.612760454223514e-18
"Vn_Z:pwr" 0.000000000000000e+00
"n_Z" 1.199999494855337e+00
"n_D1" 0.000000000000000e+00
"n_SD" 1.200000000000000e+00
"Vn_D1:n" -7.517106669971591e-14
"Vn_D1:p" 7.517106669971591e-14
"Vn_GND:n" -2.548659864363900e-10
"Vn_GND:p" 2.548659864363900e-10
"Vn_SD:n" 5.105702653873859e-13
"Vn_SD:p" -5.105702653873859e-13
"Vn_VDD:n" 2.544855140646752e-10
"Vn_VDD:p" -2.544855140646752e-10
"Vn_Z:n" -1.612760454223514e-18
"Vn_Z:p" 1.612760454223514e-18
"time" 6.010000000000000e-09
"Vn_D1:v" 0.000000000000000e+00
"Vn_D1:i" 7.517146383318437e-14
"Vn_D1:pwr" 0.000000000000000e+00
"Vn_GND:v" 0.000000000000000e+00
"Vn_GND:i" 2.548659765990953e-10
"Vn_GND:pwr" 0.000000000000000e+00
"Vn_SD:v" 0.000000000000000e+00
"Vn_SD:i" -5.105704967510155e-13
"Vn_SD:pwr" -0.000000000000000e+00
"Vn_VDD:v" 1.200000000000000e+00
"Vn_VDD:i" -2.544855149451515e-10
"Vn_VDD:pwr" -3.053826179341817e-10
"Vn_Z:v" 0.000000000000000e+00
"Vn_Z:i" -7.759131466189933e-19
"Vn_Z:pwr" -0.000000000000000e+00
"n_Z" 1.199999494855356e+00
"n_D1" 0.000000000000000e+00
"n_SD" 1.200000000000000e+00
"Vn_D1:n" -7.517146383318437e-14
"Vn_D1:p" 7.517146383318437e-14
"Vn_GND:n" -2.548659765990953e-10
"Vn_GND:p" 2.548659765990953e-10
"Vn_SD:n" 5.105704967510155e-13
"Vn_SD:p" -5.105704967510155e-13
"Vn_VDD:n" 2.544855149451515e-10
"Vn_VDD:p" -2.544855149451515e-10
"Vn_Z:n" 7.759131466189933e-19
"Vn_Z:p" -7.759131466189933e-19
"time" 6.019999743400000e-09
"Vn_D1:v" 0.000000000000000e+00
"Vn_D1:i" 7.517112436377260e-14
"Vn_D1:pwr" 0.000000000000000e+00
"Vn_GND:v" 0.000000000000000e+00
"Vn_GND:i" 2.548659762187489e-10
"Vn_GND:pwr" 0.000000000000000e+00
"Vn_SD:v" 0.000000000000000e+00
"Vn_SD:i" -5.105700673036875e-13
"Vn_SD:pwr" -0.000000000000000e+00
"Vn_VDD:v" 1.200000000000000e+00
"Vn_VDD:i" -2.544855103959388e-10
"Vn_VDD:pwr" -3.053826124751265e-10
"Vn_Z:v" 0.000000000000000e+00
"Vn_Z:i" 1.637574437568483e-18
"Vn_Z:pwr" 0.000000000000000e+00
"n_Z" 1.199999494855360e+00
"n_D1" 0.000000000000000e+00
"n_SD" 1.200000000000000e+00
"Vn_D1:n" -7.517112436377260e-14
"Vn_D1:p" 7.517112436377260e-14
"Vn_GND:n" -2.548659762187489e-10
"Vn_GND:p" 2.548659762187489e-10
"Vn_SD:n" 5.105700673036875e-13
"Vn_SD:p" -5.105700673036875e-13
"Vn_VDD:n" 2.544855103959388e-10
"Vn_VDD:p" -2.544855103959388e-10
"Vn_Z:n" -1.637574437568483e-18
"Vn_Z:p" 1.637574437568483e-18
"time" 6.020000000000000e-09
"Vn_D1:v" 0.000000000000000e+00
"Vn_D1:i" -1.075155978013891e-06
"Vn_D1:pwr" -0.000000000000000e+00
"Vn_GND:v" 0.000000000000000e+00
"Vn_GND:i" 1.931705677765964e-07
"Vn_GND:pwr" 0.000000000000000e+00
"Vn_SD:v" 0.000000000000000e+00
"Vn_SD:i" 5.439041034988457e-11
"Vn_SD:pwr" 0.000000000000000e+00
"Vn_VDD:v" 1.200000000000000e+00
"Vn_VDD:i" 8.819306858659987e-07
"Vn_VDD:pwr" 1.058316823039198e-06
"Vn_Z:v" 0.000000000000000e+00
"Vn_Z:i" 2.810590615158738e-13
"Vn_Z:pwr" 0.000000000000000e+00
"n_Z" 1.199999494855377e+00
"n_D1" 2.456722197575741e-07
"n_SD" 1.200000000000000e+00
"Vn_D1:n" 1.075155978013891e-06
"Vn_D1:p" -1.075155978013891e-06
"Vn_GND:n" -1.931705677765964e-07
"Vn_GND:p" 1.931705677765964e-07
"Vn_SD:n" -5.439041034988457e-11
"Vn_SD:p" 5.439041034988457e-11
"Vn_VDD:n" -8.819306858659987e-07
"Vn_VDD:p" 8.819306858659987e-07
"Vn_Z:n" -2.810590615158738e-13
"Vn_Z:p" 2.810590615158738e-13
"time" 6.020000513200001e-09
"Vn_D1:v" 0.000000000000000e+00
"Vn_D1:i" -1.076410568180668e-06
"Vn_D1:pwr" -0.000000000000000e+00
"Vn_GND:v" 0.000000000000000e+00
"Vn_GND:i" 1.933874220721132e-07
"Vn_GND:pwr" 0.000000000000000e+00
"Vn_SD:v" 0.000000000000000e+00
"Vn_SD:i" 1.638505327126415e-10
"Vn_SD:pwr" 0.000000000000000e+00
"Vn_VDD:v" 1.200000000000000e+00
"Vn_VDD:i" 8.828572911006959e-07
"Vn_VDD:pwr" 1.059428749320835e-06
"Vn_Z:v" 0.000000000000000e+00
"Vn_Z:i" 1.949228078410393e-12
"Vn_Z:pwr" 0.000000000000000e+00
"n_Z" 1.199999494855622e+00
"n_D1" 7.370166592727224e-07
"n_SD" 1.200000000000000e+00
"Vn_D1:n" 1.076410568180668e-06
"Vn_D1:p" -1.076410568180668e-06
"Vn_GND:n" -1.933874220721132e-07
"Vn_GND:p" 1.933874220721132e-07
"Vn_SD:n" -1.638505327126415e-10
"Vn_SD:p" 1.638505327126415e-10
"Vn_VDD:n" -8.828572911006959e-07
"Vn_VDD:p" 8.828572911006959e-07
"Vn_Z:n" -1.949228078410393e-12
"Vn_Z:p" 1.949228078410393e-12
"time" 6.020001539600004e-09
"Vn_D1:v" 0.000000000000000e+00
"Vn_D1:i" -1.078910639610504e-06
"Vn_D1:pwr" -0.000000000000000e+00
"Vn_GND:v" 0.000000000000000e+00
"Vn_GND:i" 1.938196737506949e-07
"Vn_GND:pwr" 0.000000000000000e+00
"Vn_SD:v" 0.000000000000000e+00
"Vn_SD:i" 3.820710720459801e-10
"Vn_SD:pwr" 0.000000000000000e+00
"Vn_VDD:v" 1.200000000000000e+00
"Vn_VDD:i" 8.847013783132649e-07
"Vn_VDD:pwr" 1.061641653975918e-06
"Vn_Z:v" 0.000000000000000e+00
"Vn_Z:i" 7.461948643635719e-12
"Vn_Z:pwr" 0.000000000000000e+00
"n_Z" 1.199999494856800e+00
"n_D1" 1.719705538303019e-06
"n_SD" 1.200000000000000e+00
"Vn_D1:n" 1.078910639610504e-06
"Vn_D1:p" -1.078910639610504e-06
"Vn_GND:n" -1.938196737506949e-07
"Vn_GND:p" 1.938196737506949e-07
"Vn_SD:n" -3.820710720459801e-10
"Vn_SD:p" 3.820710720459801e-10
"Vn_VDD:n" -8.847013783132649e-07
"Vn_VDD:p" 8.847013783132649e-07
"Vn_Z:n" -7.461948643635719e-12
"Vn_Z:p" 7.461948643635719e-12
"time" 6.020003592400008e-09
"Vn_D1:v" 0.000000000000000e+00
"Vn_D1:i" -1.083856409273186e-06
"Vn_D1:pwr" -0.000000000000000e+00
"Vn_GND:v" 0.000000000000000e+00
"Vn_GND:i" 1.946754826205658e-07
"Vn_GND:pwr" 0.000000000000000e+00
"Vn_SD:v" 0.000000000000000e+00
"Vn_SD:i" 8.143705497613724e-10
"Vn_SD:pwr" 0.000000000000000e+00
"Vn_VDD:v" 1.200000000000000e+00
"Vn_VDD:i" 8.883353730450716e-07
"Vn_VDD:pwr" 1.066002447654086e-06
"Vn_Z:v" 0.000000000000000e+00
"Vn_Z:i" 3.112790821575104e-11
"Vn_Z:pwr" 0.000000000000000e+00
"n_Z" 1.199999494866460e+00
"n_D1" 3.685083296363612e-06
"n_SD" 1.200000000000000e+00
"Vn_D1:n" 1.083856409273186e-06
"Vn_D1:p" -1.083856409273186e-06
"Vn_GND:n" -1.946754826205658e-07
"Vn_GND:p" 1.946754826205658e-07
"Vn_SD:n" -8.143705497613724e-10
"Vn_SD:p" 8.143705497613724e-10
"Vn_VDD:n" -8.883353730450716e-07
"Vn_VDD:p" 8.883353730450716e-07
"Vn_Z:n" -3.112790821575104e-11
"Vn_Z:p" 3.112790821575104e-11
"time" 6.020007698000017e-09
"Vn_D1:v" 0.000000000000000e+00
"Vn_D1:i" -1.093535525624885e-06
"Vn_D1:pwr" -0.000000000000000e+00
"Vn_GND:v" 0.000000000000000e+00
"Vn_GND:i" 1.963527870197118e-07
"Vn_GND:pwr" 0.000000000000000e+00
"Vn_SD:v" 0.000000000000000e+00
"Vn_SD:i" 1.662618408640321e-09
"Vn_SD:pwr" 0.000000000000000e+00
"Vn_VDD:v" 1.200000000000000e+00
"Vn_VDD:i" 8.953949939799763e-07
"Vn_VDD:pwr" 1.074473992775971e-06
"Vn_Z:v" 0.000000000000000e+00
"Vn_Z:i" 1.250712325018889e-10
"Vn_Z:pwr" 0.000000000000000e+00
"n_Z" 1.199999494944666e+00
"n_D1" 7.615838812484797e-06
"n_SD" 1.200000000000000e+00
"Vn_D1:n" 1.093535525624885e-06
"Vn_D1:p" -1.093535525624885e-06
"Vn_GND:n" -1.963527870197118e-07
"Vn_GND:p" 1.963527870197118e-07
"Vn_SD:n" -1.662618408640321e-09
"Vn_SD:p" 1.662618408640321e-09
"Vn_VDD:n" -8.953949939799763e-07
"Vn_VDD:p" 8.953949939799763e-07
"Vn_Z:n" -1.250712325018889e-10
"Vn_Z:p" 1.250712325018889e-10
"time" 6.020015909200036e-09
"Vn_D1:v" 0.000000000000000e+00
"Vn_D1:i" -1.112079781358967e-06
"Vn_D1:pwr" -0.000000000000000e+00
"Vn_GND:v" 0.000000000000000e+00
"Vn_GND:i" 1.995743203767673e-07
"Vn_GND:pwr" 0.000000000000000e+00
"Vn_SD:v" 0.000000000000000e+00
"Vn_SD:i" 3.295495217633128e-09
"Vn_SD:pwr" 0.000000000000000e+00
"Vn_VDD:v" 1.200000000000000e+00
"Vn_VDD:i" 9.087384560361345e-07
"Vn_VDD:pwr" 1.090486147243361e-06
"Vn_Z:v" 0.000000000000000e+00
"Vn_Z:i" 4.714549495700769e-10
"Vn_Z:pwr" 0.000000000000000e+00
"n_Z" 1.199999495542007e+00
"n_D1" 1.547734984472717e-05
"n_SD" 1.200000000000000e+00
"Vn_D1:n" 1.112079781358967e-06
"Vn_D1:p" -1.112079781358967e-06
"Vn_GND:n" -1.995743203767673e-07
"Vn_GND:p" 1.995743203767673e-07
"Vn_SD:n" -3.295495217633128e-09
"Vn_SD:p" 3.295495217633128e-09
"Vn_VDD:n" -9.087384560361345e-07
"Vn_VDD:p" 9.087384560361345e-07
"Vn_Z:n" -4.714549495700769e-10
"Vn_Z:p" 4.714549495700769e-10
"time" 6.020032331600072e-09
"Vn_D1:v" 0.000000000000000e+00
"Vn_D1:i" -1.137002767464696e-06
"Vn_D1:pwr" -0.000000000000000e+00
"Vn_GND:v" 0.000000000000000e+00
"Vn_GND:i" 2.055380973803038e-07
"Vn_GND:pwr" 0.000000000000000e+00
"Vn_SD:v" 0.000000000000000e+00
"Vn_SD:i" 6.322963250120651e-09
"Vn_SD:pwr" 0.000000000000000e+00
"Vn_VDD:v" 1.200000000000000e+00
"Vn_VDD:i" 9.235152579759953e-07
"Vn_VDD:pwr" 1.108218309571194e-06
"Vn_Z:v" 0.000000000000000e+00
"Vn_Z:i" 1.626393872104328e-09
"Vn_Z:pwr" 0.000000000000000e+00
"n_Z" 1.199999499743436e+00
"n_D1" 3.120037190921192e-05
"n_SD" 1.200000000000000e+00
"Vn_D1:n" 1.137002767464696e-06
"Vn_D1:p" -1.137002767464696e-06
"Vn_GND:n" -2.055380973803038e-07
"Vn_GND:p" 2.055380973803038e-07
"Vn_SD:n" -6.322963250120651e-09
"Vn_SD:p" 6.322963250120651e-09
"Vn_VDD:n" -9.235152579759953e-07
"Vn_VDD:p" 9.235152579759953e-07
"Vn_Z:n" -1.626393872104328e-09
"Vn_Z:p" 1.626393872104328e-09
"time" 6.020065176400145e-09
"Vn_D1:v" 0.000000000000000e+00
"Vn_D1:i" -1.188162876173292e-06
"Vn_D1:pwr" -0.000000000000000e+00
"Vn_GND:v" 0.000000000000000e+00
"Vn_GND:i" 2.157778681165614e-07
"Vn_GND:pwr" 0.000000000000000e+00
"Vn_SD:v" 0.000000000000000e+00
"Vn_SD:i" 1.154644658246977e-08
"Vn_SD:pwr" 0.000000000000000e+00
"Vn_VDD:v" 1.200000000000000e+00
"Vn_VDD:i" 9.559254272351927e-07
"Vn_VDD:pwr" 1.147110512682231e-06
"Vn_Z:v" 0.000000000000000e+00
"Vn_Z:i" 4.913079352892990e-09
"Vn_Z:pwr" 0.000000000000000e+00
"n_Z" 1.199999525937056e+00
"n_D1" 6.264641603818140e-05
"n_SD" 1.200000000000000e+00
"Vn_D1:n" 1.188162876173292e-06
"Vn_D1:p" -1.188162876173292e-06
"Vn_GND:n" -2.157778681165614e-07
"Vn_GND:p" 2.157778681165614e-07
"Vn_SD:n" -1.154644658246977e-08
"Vn_SD:p" 1.154644658246977e-08
"Vn_VDD:n" -9.559254272351927e-07
"Vn_VDD:p" 9.559254272351927e-07
"Vn_Z:n" -4.913079352892990e-09
"Vn_Z:p" 4.913079352892990e-09
"time" 6.020130866000290e-09
"Vn_D1:v" 0.000000000000000e+00
"Vn_D1:i" -1.265527984788344e-06
"Vn_D1:pwr" -0.000000000000000e+00
"Vn_GND:v" 0.000000000000000e+00
"Vn_GND:i" 2.309432982893851e-07
"Vn_GND:pwr" 0.000000000000000e+00
"Vn_SD:v" 0.000000000000000e+00
"Vn_SD:i" 1.941455162171436e-08
"Vn_SD:pwr" 0.000000000000000e+00