HEADER
"PSFversion" "1.00"
"simulator" "spectre"
"version" "10.1.1.164.isr11"
"date" "3:01:57 PM, Fri Oct 17, 2014"
"design" "* Spectre Timing Acquisition"
"analysis type" "tran"
"analysis name" "transient1-008_transient1"
"analysis description" "Transient Analysis `transient1-008_transient1': time = (0 s -> 39 ns)"
"xVecSorted" "ascending"
"tolerance.relative" 0.00100000
"start" 0.00000
"outputstart" 0.00000
"stop" 3.90000e-08
"step" 3.90000e-11
"maxstep" 7.80000e-10
"ic" "all"
"useprevic" "no"
"skipdc" "no"
"reltol" 0.00100000
"abstol(V)" 1.00000e-06
"abstol(I)" 1.00000e-12
"temp" 25.0000
"tnom" 27.0000
"tempeffects" "all"
"errpreset" "moderate"
"method" "traponly"
"lteratio" 3.50000
"relref" "sigglobal"
"cmin" 0.00000
"gmin" 1.00000e-12
TYPE
"sweep" FLOAT DOUBLE PROP(
"key" "sweep"
)
"Tau" FLOAT DOUBLE PROP(
"units" "N*m"
"key" "node"
"tolerance" 1.00000e-06
)
"Alpha" FLOAT DOUBLE PROP(
"units" "rads/s^2"
"key" "node"
"tolerance" 1.00000e-06
)
"Omega" FLOAT DOUBLE PROP(
"units" "rads/s"
"key" "node"
"tolerance" 1.00000e-06
)
"Theta" FLOAT DOUBLE PROP(
"units" "rads"
"key" "node"
"tolerance" 1.00000e-06
)
"F" FLOAT DOUBLE PROP(
"units" "N"
"key" "node"
"tolerance" 1.00000e-06
)
"Imp" FLOAT DOUBLE PROP(
"units" "m/s^3"
"key" "node"
"tolerance" 1.00000e-06
)
"Acc" FLOAT DOUBLE PROP(
"units" "m/s^2"
"key" "node"
"tolerance" 1.00000e-06
)
"Vel" FLOAT DOUBLE PROP(
"units" "m/s"
"key" "node"
"tolerance" 1.00000e-06
)
"Pos" FLOAT DOUBLE PROP(
"units" "m"
"key" "node"
"tolerance" 1.00000e-06
)
"Phi" FLOAT DOUBLE PROP(
"units" "Wb"
"key" "node"
"tolerance" 1.00000e-09
)
"Q" FLOAT DOUBLE PROP(
"units" "coul"
"key" "node"
"tolerance" 1.00000e-14
)
"V" FLOAT DOUBLE PROP(
"units" "V"
"key" "node"
"tolerance" 1.00000e-06
)
"I" FLOAT DOUBLE PROP(
"units" "A"
"key" "branch"
"tolerance" 1.00000e-12
)
"MMF" FLOAT DOUBLE PROP(
"units" "A*turn"
"key" "node"
"tolerance" 1.00000e-12
)
"Wb" FLOAT DOUBLE PROP(
"units" "Wb"
"key" "node"
"tolerance" 1.00000e-09
)
"Temp" FLOAT DOUBLE PROP(
"units" "C"
"key" "node"
"tolerance" 0.000100000
)
"Pwr" FLOAT DOUBLE PROP(
"units" "W"
"key" "node"
"tolerance" 1.00000e-09
)
"U" FLOAT DOUBLE PROP(
"units" ""
"key" "node"
"tolerance" 1.00000e-06
)
"V/Sec" FLOAT DOUBLE PROP(
"units" "V/s"
"key" "node"
"tolerance" 0.000100000
)
"I/Sec" FLOAT DOUBLE PROP(
"units" "A/s"
"key" "node"
"tolerance" 1.00000e-06
)
"1/Sec" FLOAT DOUBLE PROP(
"units" "1/s"
"key" "node"
"tolerance" 0.000100000
)
"HOD" FLOAT DOUBLE PROP(
"units" ""
"key" "node"
"tolerance" 0.0100000
)
"A" FLOAT DOUBLE PROP(
"key" "inst"
)
"W" FLOAT DOUBLE PROP(
"key" "inst"
)
SWEEP
"time" "sweep" PROP(
"sweep_direction" 0
"units" "s"
"plot" 0
"grid" 1
)
TRACE
"Vn_D1:v" "V" PROP(
"units" "V"
)
"Vn_D1:i" "A" PROP(
"units" "A"
)
"Vn_D1:pwr" "W" PROP(
"units" "W"
)
"Vn_GND:v" "V" PROP(
"units" "V"
)
"Vn_GND:i" "A" PROP(
"units" "A"
)
"Vn_GND:pwr" "W" PROP(
"units" "W"
)
"Vn_SD:v" "V" PROP(
"units" "V"
)
"Vn_SD:i" "A" PROP(
"units" "A"
)
"Vn_SD:pwr" "W" PROP(
"units" "W"
)
"Vn_VDD:v" "V" PROP(
"units" "V"
)
"Vn_VDD:i" "A" PROP(
"units" "A"
)
"Vn_VDD:pwr" "W" PROP(
"units" "W"
)
"Vn_Z:v" "V" PROP(
"units" "V"
)
"Vn_Z:i" "A" PROP(
"units" "A"
)
"Vn_Z:pwr" "W" PROP(
"units" "W"
)
"n_Z" "V"
"n_D1" "V"
"n_SD" "V"
"Vn_D1:n" "I"
"Vn_D1:p" "I"
"Vn_GND:n" "I"
"Vn_GND:p" "I"
"Vn_SD:n" "I"
"Vn_SD:p" "I"
"Vn_VDD:n" "I"
"Vn_VDD:p" "I"
"Vn_Z:n" "I"
"Vn_Z:p" "I"
VALUE
"time" 0.000000000000000e+00
"Vn_D1:v" 0.000000000000000e+00
"Vn_D1:i" 7.517119452868265e-14
"Vn_D1:pwr" 0.000000000000000e+00
"Vn_GND:v" 0.000000000000000e+00
"Vn_GND:i" 2.548493107913159e-10
"Vn_GND:pwr" 0.000000000000000e+00
"Vn_SD:v" 0.000000000000000e+00
"Vn_SD:i" -5.105704018311279e-13
"Vn_SD:pwr" -0.000000000000000e+00
"Vn_VDD:v" 1.200000000000000e+00
"Vn_VDD:i" -2.544688430803598e-10
"Vn_VDD:pwr" -3.053626116964317e-10
"Vn_Z:v" 0.000000000000000e+00
"Vn_Z:i" 0.000000000000000e+00
"Vn_Z:pwr" 0.000000000000000e+00
"n_Z" 1.199999494927445e+00
"n_D1" 0.000000000000000e+00
"n_SD" 1.200000000000000e+00
"Vn_D1:n" -7.517119452868265e-14
"Vn_D1:p" 7.517119452868265e-14
"Vn_GND:n" -2.548493107913159e-10
"Vn_GND:p" 2.548493107913159e-10
"Vn_SD:n" 5.105704018311279e-13
"Vn_SD:p" -5.105704018311279e-13
"Vn_VDD:n" 2.544688430803598e-10
"Vn_VDD:p" -2.544688430803598e-10
"Vn_Z:n" 0.000000000000000e+00
"Vn_Z:p" 0.000000000000000e+00
"time" 3.900000000000000e-11
"Vn_D1:v" 0.000000000000000e+00
"Vn_D1:i" 7.484300270235381e-14
"Vn_D1:pwr" 0.000000000000000e+00
"Vn_GND:v" 0.000000000000000e+00
"Vn_GND:i" 2.548642412359961e-10
"Vn_GND:pwr" 0.000000000000000e+00
"Vn_SD:v" 0.000000000000000e+00
"Vn_SD:i" -5.109881721778384e-13
"Vn_SD:pwr" -0.000000000000000e+00
"Vn_VDD:v" 1.200000000000000e+00
"Vn_VDD:i" -2.544791788452168e-10
"Vn_VDD:pwr" -3.053750146142601e-10
"Vn_Z:v" 0.000000000000000e+00
"Vn_Z:i" -3.848716964613874e-15
"Vn_Z:pwr" -0.000000000000000e+00
"n_Z" 1.199999494887945e+00
"n_D1" 0.000000000000000e+00
"n_SD" 1.200000000000000e+00
"Vn_D1:n" -7.484300270235381e-14
"Vn_D1:p" 7.484300270235381e-14
"Vn_GND:n" -2.548642412359961e-10
"Vn_GND:p" 2.548642412359961e-10
"Vn_SD:n" 5.109881721778384e-13
"Vn_SD:p" -5.109881721778384e-13
"Vn_VDD:n" 2.544791788452168e-10
"Vn_VDD:p" -2.544791788452168e-10
"Vn_Z:n" 3.848716964613874e-15
"Vn_Z:p" -3.848716964613874e-15
"time" 1.170000000000000e-10
"Vn_D1:v" 0.000000000000000e+00
"Vn_D1:i" 7.504931353711466e-14
"Vn_D1:pwr" 0.000000000000000e+00
"Vn_GND:v" 0.000000000000000e+00
"Vn_GND:i" 2.548657021527863e-10
"Vn_GND:pwr" 0.000000000000000e+00
"Vn_SD:v" 0.000000000000000e+00
"Vn_SD:i" -5.107071418219565e-13
"Vn_SD:pwr" -0.000000000000000e+00
"Vn_VDD:v" 1.200000000000000e+00
"Vn_VDD:i" -2.544838223563701e-10
"Vn_VDD:pwr" -3.053805868276441e-10
"Vn_Z:v" 0.000000000000000e+00
"Vn_Z:i" -1.153453839878638e-15
"Vn_Z:pwr" -0.000000000000000e+00
"n_Z" 1.199999494864268e+00
"n_D1" 0.000000000000000e+00
"n_SD" 1.200000000000000e+00
"Vn_D1:n" -7.504931353711466e-14
"Vn_D1:p" 7.504931353711466e-14
"Vn_GND:n" -2.548657021527863e-10
"Vn_GND:p" 2.548657021527863e-10
"Vn_SD:n" 5.107071418219565e-13
"Vn_SD:p" -5.107071418219565e-13
"Vn_VDD:n" 2.544838223563701e-10
"Vn_VDD:p" -2.544838223563701e-10
"Vn_Z:n" 1.153453839878638e-15
"Vn_Z:p" -1.153453839878638e-15
"time" 2.730000000000000e-10
"Vn_D1:v" 0.000000000000000e+00
"Vn_D1:i" 7.521724618778369e-14
"Vn_D1:pwr" 0.000000000000000e+00
"Vn_GND:v" 0.000000000000000e+00
"Vn_GND:i" 2.548665524402499e-10
"Vn_GND:pwr" 0.000000000000000e+00
"Vn_SD:v" 0.000000000000000e+00
"Vn_SD:i" -5.105180240344038e-13
"Vn_SD:pwr" -0.000000000000000e+00
"Vn_VDD:v" 1.200000000000000e+00
"Vn_VDD:i" -2.544866380433442e-10
"Vn_VDD:pwr" -3.053839656520130e-10
"Vn_Z:v" 0.000000000000000e+00
"Vn_Z:i" 4.518576701554394e-16
"Vn_Z:pwr" 0.000000000000000e+00
"n_Z" 1.199999494849867e+00
"n_D1" 0.000000000000000e+00
"n_SD" 1.200000000000000e+00
"Vn_D1:n" -7.521724618778369e-14
"Vn_D1:p" 7.521724618778369e-14
"Vn_GND:n" -2.548665524402499e-10
"Vn_GND:p" 2.548665524402499e-10
"Vn_SD:n" 5.105180240344038e-13
"Vn_SD:p" -5.105180240344038e-13
"Vn_VDD:n" 2.544866380433442e-10
"Vn_VDD:p" -2.544866380433442e-10
"Vn_Z:n" -4.518576701554394e-16
"Vn_Z:p" 4.518576701554394e-16
"time" 5.850000000000002e-10
"Vn_D1:v" 0.000000000000000e+00
"Vn_D1:i" 7.514279684570604e-14
"Vn_D1:pwr" 0.000000000000000e+00
"Vn_GND:v" 0.000000000000000e+00
"Vn_GND:i" 2.548661386385066e-10
"Vn_GND:pwr" 0.000000000000000e+00
"Vn_SD:v" 0.000000000000000e+00
"Vn_SD:i" -5.106031384211997e-13
"Vn_SD:pwr" -0.000000000000000e+00
"Vn_VDD:v" 1.200000000000000e+00
"Vn_VDD:i" -2.544853134822045e-10
"Vn_VDD:pwr" -3.053823761786454e-10
"Vn_Z:v" 0.000000000000000e+00
"Vn_Z:i" -2.881562552455624e-16
"Vn_Z:pwr" -0.000000000000000e+00
"n_Z" 1.199999494856588e+00
"n_D1" 0.000000000000000e+00
"n_SD" 1.200000000000000e+00
"Vn_D1:n" -7.514279684570604e-14
"Vn_D1:p" 7.514279684570604e-14
"Vn_GND:n" -2.548661386385066e-10
"Vn_GND:p" 2.548661386385066e-10
"Vn_SD:n" 5.106031384211997e-13
"Vn_SD:p" -5.106031384211997e-13
"Vn_VDD:n" 2.544853134822045e-10
"Vn_VDD:p" -2.544853134822045e-10
"Vn_Z:n" 2.881562552455624e-16
"Vn_Z:p" -2.881562552455624e-16
"time" 1.209000000000000e-09
"Vn_D1:v" 0.000000000000000e+00
"Vn_D1:i" 7.519367158751575e-14
"Vn_D1:pwr" 0.000000000000000e+00
"Vn_GND:v" 0.000000000000000e+00
"Vn_GND:i" 2.548663801823043e-10
"Vn_GND:pwr" 0.000000000000000e+00
"Vn_SD:v" 0.000000000000000e+00
"Vn_SD:i" -5.105442367881507e-13
"Vn_SD:pwr" -0.000000000000000e+00
"Vn_VDD:v" 1.200000000000000e+00
"Vn_VDD:i" -2.544862010105563e-10
"Vn_VDD:pwr" -3.053834412126675e-10
"Vn_Z:v" 0.000000000000000e+00
"Vn_Z:i" 2.332961495058078e-16
"Vn_Z:pwr" 0.000000000000000e+00
"n_Z" 1.199999494852084e+00
"n_D1" 0.000000000000000e+00
"n_SD" 1.200000000000000e+00
"Vn_D1:n" -7.519367158751575e-14
"Vn_D1:p" 7.519367158751575e-14
"Vn_GND:n" -2.548663801823043e-10
"Vn_GND:p" 2.548663801823043e-10
"Vn_SD:n" 5.105442367881507e-13
"Vn_SD:p" -5.105442367881507e-13
"Vn_VDD:n" 2.544862010105563e-10
"Vn_VDD:p" -2.544862010105563e-10
"Vn_Z:n" -2.332961495058078e-16
"Vn_Z:p" 2.332961495058078e-16
"time" 1.989000000000000e-09
"Vn_D1:v" 0.000000000000000e+00
"Vn_D1:i" 7.515299788926086e-14
"Vn_D1:pwr" 0.000000000000000e+00
"Vn_GND:v" 0.000000000000000e+00
"Vn_GND:i" 2.548661071001851e-10
"Vn_GND:pwr" 0.000000000000000e+00
"Vn_SD:v" 0.000000000000000e+00
"Vn_SD:i" -5.105917795740554e-13
"Vn_SD:pwr" -0.000000000000000e+00
"Vn_VDD:v" 1.200000000000000e+00
"Vn_VDD:i" -2.544853997815912e-10
"Vn_VDD:pwr" -3.053824797379094e-10
"Vn_Z:v" 0.000000000000000e+00
"Vn_Z:i" -1.942568648916798e-16
"Vn_Z:pwr" -0.000000000000000e+00
"n_Z" 1.199999494856090e+00
"n_D1" 0.000000000000000e+00
"n_SD" 1.200000000000000e+00
"Vn_D1:n" -7.515299788926086e-14
"Vn_D1:p" 7.515299788926086e-14
"Vn_GND:n" -2.548661071001851e-10
"Vn_GND:p" 2.548661071001851e-10
"Vn_SD:n" 5.105917795740554e-13
"Vn_SD:p" -5.105917795740554e-13
"Vn_VDD:n" 2.544853997815912e-10
"Vn_VDD:p" -2.544853997815912e-10
"Vn_Z:n" 1.942568648916798e-16
"Vn_Z:p" -1.942568648916798e-16
"time" 2.769000000000001e-09
"Vn_D1:v" 0.000000000000000e+00
"Vn_D1:i" 7.518623771837360e-14
"Vn_D1:pwr" 0.000000000000000e+00
"Vn_GND:v" 0.000000000000000e+00
"Vn_GND:i" 2.548662515722198e-10
"Vn_GND:pwr" 0.000000000000000e+00
"Vn_SD:v" 0.000000000000000e+00
"Vn_SD:i" -5.105525249821489e-13
"Vn_SD:pwr" -0.000000000000000e+00
"Vn_VDD:v" 1.200000000000000e+00
"Vn_VDD:i" -2.544859920116664e-10
"Vn_VDD:pwr" -3.053831904139997e-10
"Vn_Z:v" 0.000000000000000e+00
"Vn_Z:i" 1.649347573804841e-16
"Vn_Z:pwr" 0.000000000000000e+00
"n_Z" 1.199999494853081e+00
"n_D1" 0.000000000000000e+00
"n_SD" 1.200000000000000e+00
"Vn_D1:n" -7.518623771837360e-14
"Vn_D1:p" 7.518623771837360e-14
"Vn_GND:n" -2.548662515722198e-10
"Vn_GND:p" 2.548662515722198e-10
"Vn_SD:n" 5.105525249821489e-13
"Vn_SD:p" -5.105525249821489e-13
"Vn_VDD:n" 2.544859920116664e-10
"Vn_VDD:p" -2.544859920116664e-10
"Vn_Z:n" -1.649347573804841e-16
"Vn_Z:p" 1.649347573804841e-16
"time" 3.000000000000000e-09
"Vn_D1:v" 0.000000000000000e+00
"Vn_D1:i" 7.516434646442561e-14
"Vn_D1:pwr" 0.000000000000000e+00
"Vn_GND:v" 0.000000000000000e+00
"Vn_GND:i" 2.548661049105167e-10
"Vn_GND:pwr" 0.000000000000000e+00
"Vn_SD:v" 0.000000000000000e+00
"Vn_SD:i" -5.105791016023408e-13
"Vn_SD:pwr" -0.000000000000000e+00
"Vn_VDD:v" 1.200000000000000e+00
"Vn_VDD:i" -2.544855265184271e-10
"Vn_VDD:pwr" -3.053826318221125e-10
"Vn_Z:v" 0.000000000000000e+00
"Vn_Z:i" -8.902643710316534e-17
"Vn_Z:pwr" -0.000000000000000e+00
"n_Z" 1.199999494855388e+00
"n_D1" 0.000000000000000e+00
"n_SD" 1.200000000000000e+00
"Vn_D1:n" -7.516434646442561e-14
"Vn_D1:p" 7.516434646442561e-14
"Vn_GND:n" -2.548661049105167e-10
"Vn_GND:p" 2.548661049105167e-10
"Vn_SD:n" 5.105791016023408e-13
"Vn_SD:p" -5.105791016023408e-13
"Vn_VDD:n" 2.544855265184271e-10
"Vn_VDD:p" -2.544855265184271e-10
"Vn_Z:n" 8.902643710316534e-17
"Vn_Z:p" -8.902643710316534e-17
"time" 3.010000000000000e-09
"Vn_D1:v" 0.000000000000000e+00
"Vn_D1:i" 7.516438725155803e-14
"Vn_D1:pwr" 0.000000000000000e+00
"Vn_GND:v" 0.000000000000000e+00
"Vn_GND:i" 2.548661148027354e-10
"Vn_GND:pwr" 0.000000000000000e+00
"Vn_SD:v" 0.000000000000000e+00
"Vn_SD:i" -5.105780910918977e-13
"Vn_SD:pwr" -0.000000000000000e+00
"Vn_VDD:v" 1.200000000000000e+00
"Vn_VDD:i" -2.544855662464446e-10
"Vn_VDD:pwr" -3.053826794957335e-10
"Vn_Z:v" 0.000000000000000e+00
"Vn_Z:i" -6.642973908067953e-17
"Vn_Z:pwr" -0.000000000000000e+00
"n_Z" 1.199999494855213e+00
"n_D1" 0.000000000000000e+00
"n_SD" 1.200000000000000e+00
"Vn_D1:n" -7.516438725155803e-14
"Vn_D1:p" 7.516438725155803e-14
"Vn_GND:n" -2.548661148027354e-10
"Vn_GND:p" 2.548661148027354e-10
"Vn_SD:n" 5.105780910918977e-13
"Vn_SD:p" -5.105780910918977e-13
"Vn_VDD:n" 2.544855662464446e-10
"Vn_VDD:p" -2.544855662464446e-10
"Vn_Z:n" 6.642973908067953e-17
"Vn_Z:p" -6.642973908067953e-17
"time" 3.030000000000000e-09
"Vn_D1:v" 0.000000000000000e+00
"Vn_D1:i" 7.516674422275795e-14
"Vn_D1:pwr" 0.000000000000000e+00
"Vn_GND:v" 0.000000000000000e+00
"Vn_GND:i" 2.548661269930440e-10
"Vn_GND:pwr" 0.000000000000000e+00
"Vn_SD:v" 0.000000000000000e+00
"Vn_SD:i" -5.105752970664704e-13
"Vn_SD:pwr" -0.000000000000000e+00
"Vn_VDD:v" 1.200000000000000e+00
"Vn_VDD:i" -2.544856085192252e-10
"Vn_VDD:pwr" -3.053827302230702e-10
"Vn_Z:v" 0.000000000000000e+00
"Vn_Z:i" -4.138429960078389e-17
"Vn_Z:pwr" -0.000000000000000e+00
"n_Z" 1.199999494854995e+00
"n_D1" 0.000000000000000e+00
"n_SD" 1.200000000000000e+00
"Vn_D1:n" -7.516674422275795e-14
"Vn_D1:p" 7.516674422275795e-14
"Vn_GND:n" -2.548661269930440e-10
"Vn_GND:p" 2.548661269930440e-10
"Vn_SD:n" 5.105752970664704e-13
"Vn_SD:p" -5.105752970664704e-13
"Vn_VDD:n" 2.544856085192252e-10
"Vn_VDD:p" -2.544856085192252e-10
"Vn_Z:n" 4.138429960078389e-17
"Vn_Z:p" -4.138429960078389e-17
"time" 3.070000000000001e-09
"Vn_D1:v" 0.000000000000000e+00
"Vn_D1:i" 7.517007921828123e-14
"Vn_D1:pwr" 0.000000000000000e+00
"Vn_GND:v" 0.000000000000000e+00
"Vn_GND:i" 2.548661414360829e-10
"Vn_GND:pwr" 0.000000000000000e+00
"Vn_SD:v" 0.000000000000000e+00
"Vn_SD:i" -5.105716498276084e-13
"Vn_SD:pwr" -0.000000000000000e+00
"Vn_VDD:v" 1.200000000000000e+00
"Vn_VDD:i" -2.544856610866224e-10
"Vn_VDD:pwr" -3.053827933039469e-10
"Vn_Z:v" 0.000000000000000e+00
"Vn_Z:i" -1.108856832133974e-17
"Vn_Z:pwr" -0.000000000000000e+00
"n_Z" 1.199999494854719e+00
"n_D1" 0.000000000000000e+00
"n_SD" 1.200000000000000e+00
"Vn_D1:n" -7.517007921828123e-14
"Vn_D1:p" 7.517007921828123e-14
"Vn_GND:n" -2.548661414360829e-10
"Vn_GND:p" 2.548661414360829e-10
"Vn_SD:n" 5.105716498276084e-13
"Vn_SD:p" -5.105716498276084e-13
"Vn_VDD:n" 2.544856610866224e-10
"Vn_VDD:p" -2.544856610866224e-10
"Vn_Z:n" 1.108856832133974e-17
"Vn_Z:p" -1.108856832133974e-17
"time" 3.150000000000003e-09
"Vn_D1:v" 0.000000000000000e+00
"Vn_D1:i" 7.517145452566600e-14
"Vn_D1:pwr" 0.000000000000000e+00
"Vn_GND:v" 0.000000000000000e+00
"Vn_GND:i" 2.548661433930637e-10
"Vn_GND:pwr" 0.000000000000000e+00
"Vn_SD:v" 0.000000000000000e+00
"Vn_SD:i" -5.105700677043643e-13
"Vn_SD:pwr" -0.000000000000000e+00
"Vn_VDD:v" 1.200000000000000e+00
"Vn_VDD:i" -2.544856746452327e-10
"Vn_VDD:pwr" -3.053828095742792e-10
"Vn_Z:v" 0.000000000000000e+00
"Vn_Z:i" 3.680634404312995e-18
"Vn_Z:pwr" 0.000000000000000e+00
"n_Z" 1.199999494854641e+00
"n_D1" 0.000000000000000e+00
"n_SD" 1.200000000000000e+00
"Vn_D1:n" -7.517145452566600e-14
"Vn_D1:p" 7.517145452566600e-14
"Vn_GND:n" -2.548661433930637e-10
"Vn_GND:p" 2.548661433930637e-10
"Vn_SD:n" 5.105700677043643e-13
"Vn_SD:p" -5.105700677043643e-13
"Vn_VDD:n" 2.544856746452327e-10
"Vn_VDD:p" -2.544856746452327e-10
"Vn_Z:n" -3.680634404312995e-18
"Vn_Z:p" 3.680634404312995e-18
"time" 3.310000000000005e-09
"Vn_D1:v" 0.000000000000000e+00
"Vn_D1:i" 7.517122697298894e-14
"Vn_D1:pwr" 0.000000000000000e+00
"Vn_GND:v" 0.000000000000000e+00
"Vn_GND:i" 2.548661328792925e-10
"Vn_GND:pwr" 0.000000000000000e+00
"Vn_SD:v" 0.000000000000000e+00
"Vn_SD:i" -5.105704325516749e-13
"Vn_SD:pwr" -0.000000000000000e+00
"Vn_VDD:v" 1.200000000000000e+00
"Vn_VDD:i" -2.544856628711041e-10
"Vn_VDD:pwr" -3.053827954453249e-10
"Vn_Z:v" 0.000000000000000e+00
"Vn_Z:i" -1.233385980069847e-18
"Vn_Z:pwr" -0.000000000000000e+00
"n_Z" 1.199999494854692e+00
"n_D1" 0.000000000000000e+00
"n_SD" 1.200000000000000e+00
"Vn_D1:n" -7.517122697298894e-14
"Vn_D1:p" 7.517122697298894e-14
"Vn_GND:n" -2.548661328792925e-10
"Vn_GND:p" 2.548661328792925e-10
"Vn_SD:n" 5.105704325516749e-13
"Vn_SD:p" -5.105704325516749e-13
"Vn_VDD:n" 2.544856628711041e-10
"Vn_VDD:p" -2.544856628711041e-10
"Vn_Z:n" 1.233385980069847e-18
"Vn_Z:p" -1.233385980069847e-18
"time" 3.630000000000011e-09
"Vn_D1:v" 0.000000000000000e+00
"Vn_D1:i" 7.517126589075239e-14
"Vn_D1:pwr" 0.000000000000000e+00
"Vn_GND:v" 0.000000000000000e+00
"Vn_GND:i" 2.548661147283530e-10
"Vn_GND:pwr" 0.000000000000000e+00
"Vn_SD:v" 0.000000000000000e+00
"Vn_SD:i" -5.105702304449264e-13
"Vn_SD:pwr" -0.000000000000000e+00
"Vn_VDD:v" 1.200000000000000e+00
"Vn_VDD:i" -2.544856579390871e-10
"Vn_VDD:pwr" -3.053827895269045e-10
"Vn_Z:v" 0.000000000000000e+00
"Vn_Z:i" 2.571092106283822e-18
"Vn_Z:pwr" 0.000000000000000e+00
"n_Z" 1.199999494854748e+00
"n_D1" 0.000000000000000e+00
"n_SD" 1.200000000000000e+00
"Vn_D1:n" -7.517126589075239e-14
"Vn_D1:p" 7.517126589075239e-14
"Vn_GND:n" -2.548661147283530e-10
"Vn_GND:p" 2.548661147283530e-10
"Vn_SD:n" 5.105702304449264e-13
"Vn_SD:p" -5.105702304449264e-13
"Vn_VDD:n" 2.544856579390871e-10
"Vn_VDD:p" -2.544856579390871e-10
"Vn_Z:n" -2.571092106283822e-18
"Vn_Z:p" 2.571092106283822e-18
"time" 4.270000000000022e-09
"Vn_D1:v" 0.000000000000000e+00
"Vn_D1:i" 7.517146292110531e-14
"Vn_D1:pwr" 0.000000000000000e+00
"Vn_GND:v" 0.000000000000000e+00
"Vn_GND:i" 2.548660780821172e-10
"Vn_GND:pwr" 0.000000000000000e+00
"Vn_SD:v" 0.000000000000000e+00
"Vn_SD:i" -5.105701732448851e-13
"Vn_SD:pwr" -0.000000000000000e+00
"Vn_VDD:v" 1.200000000000000e+00
"Vn_VDD:i" -2.544856012339520e-10
"Vn_VDD:pwr" -3.053827214807423e-10
"Vn_Z:v" 0.000000000000000e+00
"Vn_Z:i" -2.993276052209400e-19
"Vn_Z:pwr" -0.000000000000000e+00
"n_Z" 1.199999494854940e+00
"n_D1" 0.000000000000000e+00
"n_SD" 1.200000000000000e+00
"Vn_D1:n" -7.517146292110531e-14
"Vn_D1:p" 7.517146292110531e-14
"Vn_GND:n" -2.548660780821172e-10
"Vn_GND:p" 2.548660780821172e-10
"Vn_SD:n" 5.105701732448851e-13
"Vn_SD:p" -5.105701732448851e-13
"Vn_VDD:n" 2.544856012339520e-10
"Vn_VDD:p" -2.544856012339520e-10
"Vn_Z:n" 2.993276052209400e-19
"Vn_Z:p" -2.993276052209400e-19
"time" 5.050000000000022e-09
"Vn_D1:v" 0.000000000000000e+00
"Vn_D1:i" 7.517116495231391e-14
"Vn_D1:pwr" 0.000000000000000e+00
"Vn_GND:v" 0.000000000000000e+00
"Vn_GND:i" 2.548660318534451e-10
"Vn_GND:pwr" 0.000000000000000e+00
"Vn_SD:v" 0.000000000000000e+00
"Vn_SD:i" -5.105703392254665e-13
"Vn_SD:pwr" -0.000000000000000e+00
"Vn_VDD:v" 1.200000000000000e+00
"Vn_VDD:i" -2.544855769846957e-10
"Vn_VDD:pwr" -3.053826923816348e-10
"Vn_Z:v" 0.000000000000000e+00
"Vn_Z:i" 1.909983963804043e-18
"Vn_Z:pwr" 0.000000000000000e+00
"n_Z" 1.199999494855105e+00
"n_D1" 0.000000000000000e+00
"n_SD" 1.200000000000000e+00
"Vn_D1:n" -7.517116495231391e-14
"Vn_D1:p" 7.517116495231391e-14
"Vn_GND:n" -2.548660318534451e-10
"Vn_GND:p" 2.548660318534451e-10
"Vn_SD:n" 5.105703392254665e-13
"Vn_SD:p" -5.105703392254665e-13
"Vn_VDD:n" 2.544855769846957e-10
"Vn_VDD:p" -2.544855769846957e-10
"Vn_Z:n" -1.909983963804043e-18
"Vn_Z:p" 1.909983963804043e-18
"time" 5.830000000000022e-09
"Vn_D1:v" 0.000000000000000e+00
"Vn_D1:i" 7.517138686615478e-14
"Vn_D1:pwr" 0.000000000000000e+00
"Vn_GND:v" 0.000000000000000e+00
"Vn_GND:i" 2.548659868501297e-10
"Vn_GND:pwr" 0.000000000000000e+00
"Vn_SD:v" 0.000000000000000e+00
"Vn_SD:i" -5.105702824519525e-13
"Vn_SD:pwr" -0.000000000000000e+00
"Vn_VDD:v" 1.200000000000000e+00
"Vn_VDD:i" -2.544855071414759e-10
"Vn_VDD:pwr" -3.053826085697710e-10
"Vn_Z:v" 0.000000000000000e+00
"Vn_Z:i" 3.563729099411862e-19
"Vn_Z:pwr" 0.000000000000000e+00
"n_Z" 1.199999494855338e+00
"n_D1" 0.000000000000000e+00
"n_SD" 1.200000000000000e+00
"Vn_D1:n" -7.517138686615478e-14
"Vn_D1:p" 7.517138686615478e-14
"Vn_GND:n" -2.548659868501297e-10
"Vn_GND:p" 2.548659868501297e-10
"Vn_SD:n" 5.105702824519525e-13
"Vn_SD:p" -5.105702824519525e-13
"Vn_VDD:n" 2.544855071414759e-10
"Vn_VDD:p" -2.544855071414759e-10
"Vn_Z:n" -3.563729099411862e-19
"Vn_Z:p" 3.563729099411862e-19
"time" 6.010000000000000e-09
"Vn_D1:v" 0.000000000000000e+00
"Vn_D1:i" 7.517099917252957e-14
"Vn_D1:pwr" 0.000000000000000e+00
"Vn_GND:v" 0.000000000000000e+00
"Vn_GND:i" 2.548659760175739e-10
"Vn_GND:pwr" 0.000000000000000e+00
"Vn_SD:v" 0.000000000000000e+00
"Vn_SD:i" -5.105704696550110e-13
"Vn_SD:pwr" -0.000000000000000e+00
"Vn_VDD:v" 1.200000000000000e+00
"Vn_VDD:i" -2.544855196707470e-10
"Vn_VDD:pwr" -3.053826236048964e-10
"Vn_Z:v" 0.000000000000000e+00
"Vn_Z:i" 3.893723592803780e-19
"Vn_Z:pwr" 0.000000000000000e+00
"n_Z" 1.199999494855356e+00
"n_D1" 0.000000000000000e+00
"n_SD" 1.200000000000000e+00
"Vn_D1:n" -7.517099917252957e-14
"Vn_D1:p" 7.517099917252957e-14
"Vn_GND:n" -2.548659760175739e-10
"Vn_GND:p" 2.548659760175739e-10
"Vn_SD:n" 5.105704696550110e-13
"Vn_SD:p" -5.105704696550110e-13
"Vn_VDD:n" 2.544855196707470e-10
"Vn_VDD:p" -2.544855196707470e-10
"Vn_Z:n" -3.893723592803780e-19
"Vn_Z:p" 3.893723592803780e-19
"time" 6.019999743400000e-09
"Vn_D1:v" 0.000000000000000e+00
"Vn_D1:i" 7.517158894714658e-14
"Vn_D1:pwr" 0.000000000000000e+00
"Vn_GND:v" 0.000000000000000e+00
"Vn_GND:i" 2.548659762565549e-10
"Vn_GND:pwr" 0.000000000000000e+00
"Vn_SD:v" 0.000000000000000e+00
"Vn_SD:i" -5.105700952320854e-13
"Vn_SD:pwr" -0.000000000000000e+00
"Vn_VDD:v" 1.200000000000000e+00
"Vn_VDD:i" -2.544855103835138e-10
"Vn_VDD:pwr" -3.053826124602166e-10
"Vn_Z:v" 0.000000000000000e+00
"Vn_Z:i" 1.226947947122409e-18
"Vn_Z:pwr" 0.000000000000000e+00
"n_Z" 1.199999494855359e+00
"n_D1" 0.000000000000000e+00
"n_SD" 1.200000000000000e+00
"Vn_D1:n" -7.517158894714658e-14
"Vn_D1:p" 7.517158894714658e-14
"Vn_GND:n" -2.548659762565549e-10
"Vn_GND:p" 2.548659762565549e-10
"Vn_SD:n" 5.105700952320854e-13
"Vn_SD:p" -5.105700952320854e-13
"Vn_VDD:n" 2.544855103835138e-10
"Vn_VDD:p" -2.544855103835138e-10
"Vn_Z:n" -1.226947947122409e-18
"Vn_Z:p" 1.226947947122409e-18
"time" 6.020000000000000e-09
"Vn_D1:v" 0.000000000000000e+00
"Vn_D1:i" -1.075155978013596e-06
"Vn_D1:pwr" -0.000000000000000e+00
"Vn_GND:v" 0.000000000000000e+00
"Vn_GND:i" 1.931705641783446e-07
"Vn_GND:pwr" 0.000000000000000e+00
"Vn_SD:v" 0.000000000000000e+00
"Vn_SD:i" 5.439225270807654e-11
"Vn_SD:pwr" 0.000000000000000e+00
"Vn_VDD:v" 1.200000000000000e+00
"Vn_VDD:i" 8.819306852897193e-07
"Vn_VDD:pwr" 1.058316822347663e-06
"Vn_Z:v" 0.000000000000000e+00
"Vn_Z:i" 2.810074298543066e-13
"Vn_Z:pwr" 0.000000000000000e+00
"n_Z" 1.199999494855378e+00
"n_D1" 2.456722197575741e-07
"n_SD" 1.200000000000000e+00
"Vn_D1:n" 1.075155978013596e-06
"Vn_D1:p" -1.075155978013596e-06
"Vn_GND:n" -1.931705641783446e-07
"Vn_GND:p" 1.931705641783446e-07
"Vn_SD:n" -5.439225270807654e-11
"Vn_SD:p" 5.439225270807654e-11
"Vn_VDD:n" -8.819306852897193e-07
"Vn_VDD:p" 8.819306852897193e-07
"Vn_Z:n" -2.810074298543066e-13
"Vn_Z:p" 2.810074298543066e-13
"time" 6.020000513200001e-09
"Vn_D1:v" 0.000000000000000e+00
"Vn_D1:i" -1.076410568125073e-06
"Vn_D1:pwr" -0.000000000000000e+00
"Vn_GND:v" 0.000000000000000e+00
"Vn_GND:i" 1.933874226126627e-07
"Vn_GND:pwr" 0.000000000000000e+00
"Vn_SD:v" 0.000000000000000e+00
"Vn_SD:i" 1.638509657312349e-10
"Vn_SD:pwr" 0.000000000000000e+00
"Vn_VDD:v" 1.200000000000000e+00
"Vn_VDD:i" 8.828572921636232e-07
"Vn_VDD:pwr" 1.059428750596348e-06
"Vn_Z:v" 0.000000000000000e+00
"Vn_Z:i" 1.948542143635288e-12
"Vn_Z:pwr" 0.000000000000000e+00
"n_Z" 1.199999494855641e+00
"n_D1" 7.370166592727224e-07
"n_SD" 1.200000000000000e+00
"Vn_D1:n" 1.076410568125073e-06
"Vn_D1:p" -1.076410568125073e-06
"Vn_GND:n" -1.933874226126627e-07
"Vn_GND:p" 1.933874226126627e-07
"Vn_SD:n" -1.638509657312349e-10
"Vn_SD:p" 1.638509657312349e-10
"Vn_VDD:n" -8.828572921636232e-07
"Vn_VDD:p" 8.828572921636232e-07
"Vn_Z:n" -1.948542143635288e-12
"Vn_Z:p" 1.948542143635288e-12
"time" 6.020001539600004e-09
"Vn_D1:v" 0.000000000000000e+00
"Vn_D1:i" -1.078910639506937e-06
"Vn_D1:pwr" -0.000000000000000e+00
"Vn_GND:v" 0.000000000000000e+00
"Vn_GND:i" 1.938196742683673e-07
"Vn_GND:pwr" 0.000000000000000e+00
"Vn_SD:v" 0.000000000000000e+00
"Vn_SD:i" 3.820704563081828e-10
"Vn_SD:pwr" 0.000000000000000e+00
"Vn_VDD:v" 1.200000000000000e+00
"Vn_VDD:i" 8.847013796915772e-07
"Vn_VDD:pwr" 1.061641655629893e-06
"Vn_Z:v" 0.000000000000000e+00
"Vn_Z:i" 7.458146785675174e-12
"Vn_Z:pwr" 0.000000000000000e+00
"n_Z" 1.199999494856911e+00
"n_D1" 1.719705538303019e-06
"n_SD" 1.200000000000000e+00
"Vn_D1:n" 1.078910639506937e-06
"Vn_D1:p" -1.078910639506937e-06
"Vn_GND:n" -1.938196742683673e-07
"Vn_GND:p" 1.938196742683673e-07
"Vn_SD:n" -3.820704563081828e-10
"Vn_SD:p" 3.820704563081828e-10
"Vn_VDD:n" -8.847013796915772e-07
"Vn_VDD:p" 8.847013796915772e-07
"Vn_Z:n" -7.458146785675174e-12
"Vn_Z:p" 7.458146785675174e-12
"time" 6.020003592400008e-09
"Vn_D1:v" 0.000000000000000e+00
"Vn_D1:i" -1.083856409673178e-06
"Vn_D1:pwr" -0.000000000000000e+00
"Vn_GND:v" 0.000000000000000e+00
"Vn_GND:i" 1.946754930119909e-07
"Vn_GND:pwr" 0.000000000000000e+00
"Vn_SD:v" 0.000000000000000e+00
"Vn_SD:i" 8.143754890075290e-10
"Vn_SD:pwr" 0.000000000000000e+00
"Vn_VDD:v" 1.200000000000000e+00
"Vn_VDD:i" 8.883353895388995e-07
"Vn_VDD:pwr" 1.066002467446679e-06
"Vn_Z:v" 0.000000000000000e+00
"Vn_Z:i" 3.109887329022521e-11
"Vn_Z:pwr" 0.000000000000000e+00
"n_Z" 1.199999494867326e+00
"n_D1" 3.685083296363612e-06
"n_SD" 1.200000000000000e+00
"Vn_D1:n" 1.083856409673178e-06
"Vn_D1:p" -1.083856409673178e-06
"Vn_GND:n" -1.946754930119909e-07
"Vn_GND:p" 1.946754930119909e-07
"Vn_SD:n" -8.143754890075290e-10
"Vn_SD:p" 8.143754890075290e-10
"Vn_VDD:n" -8.883353895388995e-07
"Vn_VDD:p" 8.883353895388995e-07
"Vn_Z:n" -3.109887329022521e-11
"Vn_Z:p" 3.109887329022521e-11
"time" 6.020007698000017e-09
"Vn_D1:v" 0.000000000000000e+00
"Vn_D1:i" -1.093535525141229e-06
"Vn_D1:pwr" -0.000000000000000e+00
"Vn_GND:v" 0.000000000000000e+00
"Vn_GND:i" 1.963528591745963e-07
"Vn_GND:pwr" 0.000000000000000e+00
"Vn_SD:v" 0.000000000000000e+00
"Vn_SD:i" 1.662645086796890e-09
"Vn_SD:pwr" 0.000000000000000e+00
"Vn_VDD:v" 1.200000000000000e+00
"Vn_VDD:i" 8.953951211117100e-07
"Vn_VDD:pwr" 1.074474145334052e-06
"Vn_Z:v" 0.000000000000000e+00
"Vn_Z:i" 1.248427122286869e-10
"Vn_Z:pwr" 0.000000000000000e+00
"n_Z" 1.199999494951567e+00
"n_D1" 7.615838812484797e-06
"n_SD" 1.200000000000000e+00
"Vn_D1:n" 1.093535525141229e-06
"Vn_D1:p" -1.093535525141229e-06
"Vn_GND:n" -1.963528591745963e-07
"Vn_GND:p" 1.963528591745963e-07
"Vn_SD:n" -1.662645086796890e-09
"Vn_SD:p" 1.662645086796890e-09
"Vn_VDD:n" -8.953951211117100e-07
"Vn_VDD:p" 8.953951211117100e-07
"Vn_Z:n" -1.248427122286869e-10
"Vn_Z:p" 1.248427122286869e-10
"time" 6.020015909200036e-09
"Vn_D1:v" 0.000000000000000e+00
"Vn_D1:i" -1.112079781721314e-06
"Vn_D1:pwr" -0.000000000000000e+00
"Vn_GND:v" 0.000000000000000e+00
"Vn_GND:i" 1.995748568139262e-07
"Vn_GND:pwr" 0.000000000000000e+00
"Vn_SD:v" 0.000000000000000e+00
"Vn_SD:i" 3.295702077355485e-09
"Vn_SD:pwr" 0.000000000000000e+00
"Vn_VDD:v" 1.200000000000000e+00
"Vn_VDD:i" 9.087393958597716e-07
"Vn_VDD:pwr" 1.090487275031726e-06
"Vn_Z:v" 0.000000000000000e+00
"Vn_Z:i" 4.697741321202766e-10
"Vn_Z:pwr" 0.000000000000000e+00
"n_Z" 1.199999495594004e+00
"n_D1" 1.547734984472717e-05
"n_SD" 1.200000000000000e+00
"Vn_D1:n" 1.112079781721314e-06
"Vn_D1:p" -1.112079781721314e-06
"Vn_GND:n" -1.995748568139262e-07
"Vn_GND:p" 1.995748568139262e-07
"Vn_SD:n" -3.295702077355485e-09
"Vn_SD:p" 3.295702077355485e-09
"Vn_VDD:n" -9.087393958597716e-07
"Vn_VDD:p" 9.087393958597716e-07
"Vn_Z:n" -4.697741321202766e-10
"Vn_Z:p" 4.697741321202766e-10
"time" 6.020032331600072e-09
"Vn_D1:v" 0.000000000000000e+00
"Vn_D1:i" -1.137002763863512e-06
"Vn_D1:pwr" -0.000000000000000e+00
"Vn_GND:v" 0.000000000000000e+00
"Vn_GND:i" 2.055415236966407e-07
"Vn_GND:pwr" 0.000000000000000e+00
"Vn_SD:v" 0.000000000000000e+00
"Vn_SD:i" 6.324318469751532e-09
"Vn_SD:pwr" 0.000000000000000e+00
"Vn_VDD:v" 1.200000000000000e+00
"Vn_VDD:i" 9.235214583716492e-07
"Vn_VDD:pwr" 1.108225750045979e-06
"Vn_Z:v" 0.000000000000000e+00
"Vn_Z:i" 1.615406359270537e-09
"Vn_Z:pwr" 0.000000000000000e+00
"n_Z" 1.199999500099750e+00
"n_D1" 3.120037190921192e-05
"n_SD" 1.200000000000000e+00
"Vn_D1:n" 1.137002763863512e-06
"Vn_D1:p" -1.137002763863512e-06
"Vn_GND:n" -2.055415236966407e-07
"Vn_GND:p" 2.055415236966407e-07
"Vn_SD:n" -6.324318469751532e-09
"Vn_SD:p" 6.324318469751532e-09
"Vn_VDD:n" -9.235214583716492e-07
"Vn_VDD:p" 9.235214583716492e-07
"Vn_Z:n" -1.615406359270537e-09
"Vn_Z:p" 1.615406359270537e-09
"time" 6.020065176400145e-09
"Vn_D1:v" 0.000000000000000e+00
"Vn_D1:i" -1.188162851942794e-06
"Vn_D1:pwr" -0.000000000000000e+00
"Vn_GND:v" 0.000000000000000e+00
"Vn_GND:i" 2.157957734745492e-07
"Vn_GND:pwr" 0.000000000000000e+00
"Vn_SD:v" 0.000000000000000e+00
"Vn_SD:i" 1.155392130237739e-08
"Vn_SD:pwr" 0.000000000000000e+00
"Vn_VDD:v" 1.200000000000000e+00
"Vn_VDD:i" 9.559597152509203e-07
"Vn_VDD:pwr" 1.147151658301104e-06
"Vn_Z:v" 0.000000000000000e+00
"Vn_Z:i" 4.853389021448723e-09
"Vn_Z:pwr" 0.000000000000000e+00
"n_Z" 1.199999528055840e+00
"n_D1" 6.264641603818140e-05
"n_SD" 1.200000000000000e+00
"Vn_D1:n" 1.188162851942794e-06
"Vn_D1:p" -1.188162851942794e-06
"Vn_GND:n" -2.157957734745492e-07
"Vn_GND:p" 2.157957734745492e-07
"Vn_SD:n" -1.155392130237739e-08
"Vn_SD:p" 1.155392130237739e-08
"Vn_VDD:n" -9.559597152509203e-07
"Vn_VDD:p" 9.559597152509203e-07
"Vn_Z:n" -4.853389021448723e-09
"Vn_Z:p" 4.853389021448723e-09
"time" 6.020130866000290e-09
"Vn_D1:v" 0.000000000000000e+00
"Vn_D1:i" -1.265527860607315e-06
"Vn_D1:pwr" -0.000000000000000e+00
"Vn_GND:v" 0.000000000000000e+00
"Vn_GND:i" 2.310120096810715e-07
"Vn_GND:pwr" 0.000000000000000e+00
"Vn_SD:v" 0.000000000000000e+00
"Vn_SD:i" 1.944597003265514e-08
"Vn_SD:pwr" 0.000000000000000e+00