HEADER
"PSFversion" "1.00"
"simulator" "spectre"
"version" "10.1.1.164.isr11"
"date" "3:01:57 PM, Fri Oct 17, 2014"
"design" "* Spectre Timing Acquisition"
"analysis type" "tran"
"analysis name" "transient1-013_transient1"
"analysis description" "Transient Analysis `transient1-013_transient1': time = (0 s -> 39 ns)"
"xVecSorted" "ascending"
"tolerance.relative" 0.00100000
"start" 0.00000
"outputstart" 0.00000
"stop" 3.90000e-08
"step" 3.90000e-11
"maxstep" 7.80000e-10
"ic" "all"
"useprevic" "no"
"skipdc" "no"
"reltol" 0.00100000
"abstol(V)" 1.00000e-06
"abstol(I)" 1.00000e-12
"temp" 25.0000
"tnom" 27.0000
"tempeffects" "all"
"errpreset" "moderate"
"method" "traponly"
"lteratio" 3.50000
"relref" "sigglobal"
"cmin" 0.00000
"gmin" 1.00000e-12
TYPE
"sweep" FLOAT DOUBLE PROP(
"key" "sweep"
)
"Tau" FLOAT DOUBLE PROP(
"units" "N*m"
"key" "node"
"tolerance" 1.00000e-06
)
"Alpha" FLOAT DOUBLE PROP(
"units" "rads/s^2"
"key" "node"
"tolerance" 1.00000e-06
)
"Omega" FLOAT DOUBLE PROP(
"units" "rads/s"
"key" "node"
"tolerance" 1.00000e-06
)
"Theta" FLOAT DOUBLE PROP(
"units" "rads"
"key" "node"
"tolerance" 1.00000e-06
)
"F" FLOAT DOUBLE PROP(
"units" "N"
"key" "node"
"tolerance" 1.00000e-06
)
"Imp" FLOAT DOUBLE PROP(
"units" "m/s^3"
"key" "node"
"tolerance" 1.00000e-06
)
"Acc" FLOAT DOUBLE PROP(
"units" "m/s^2"
"key" "node"
"tolerance" 1.00000e-06
)
"Vel" FLOAT DOUBLE PROP(
"units" "m/s"
"key" "node"
"tolerance" 1.00000e-06
)
"Pos" FLOAT DOUBLE PROP(
"units" "m"
"key" "node"
"tolerance" 1.00000e-06
)
"Phi" FLOAT DOUBLE PROP(
"units" "Wb"
"key" "node"
"tolerance" 1.00000e-09
)
"Q" FLOAT DOUBLE PROP(
"units" "coul"
"key" "node"
"tolerance" 1.00000e-14
)
"V" FLOAT DOUBLE PROP(
"units" "V"
"key" "node"
"tolerance" 1.00000e-06
)
"I" FLOAT DOUBLE PROP(
"units" "A"
"key" "branch"
"tolerance" 1.00000e-12
)
"MMF" FLOAT DOUBLE PROP(
"units" "A*turn"
"key" "node"
"tolerance" 1.00000e-12
)
"Wb" FLOAT DOUBLE PROP(
"units" "Wb"
"key" "node"
"tolerance" 1.00000e-09
)
"Temp" FLOAT DOUBLE PROP(
"units" "C"
"key" "node"
"tolerance" 0.000100000
)
"Pwr" FLOAT DOUBLE PROP(
"units" "W"
"key" "node"
"tolerance" 1.00000e-09
)
"U" FLOAT DOUBLE PROP(
"units" ""
"key" "node"
"tolerance" 1.00000e-06
)
"V/Sec" FLOAT DOUBLE PROP(
"units" "V/s"
"key" "node"
"tolerance" 0.000100000
)
"I/Sec" FLOAT DOUBLE PROP(
"units" "A/s"
"key" "node"
"tolerance" 1.00000e-06
)
"1/Sec" FLOAT DOUBLE PROP(
"units" "1/s"
"key" "node"
"tolerance" 0.000100000
)
"HOD" FLOAT DOUBLE PROP(
"units" ""
"key" "node"
"tolerance" 0.0100000
)
"A" FLOAT DOUBLE PROP(
"key" "inst"
)
"W" FLOAT DOUBLE PROP(
"key" "inst"
)
SWEEP
"time" "sweep" PROP(
"sweep_direction" 0
"units" "s"
"plot" 0
"grid" 1
)
TRACE
"Vn_D1:v" "V" PROP(
"units" "V"
)
"Vn_D1:i" "A" PROP(
"units" "A"
)
"Vn_D1:pwr" "W" PROP(
"units" "W"
)
"Vn_GND:v" "V" PROP(
"units" "V"
)
"Vn_GND:i" "A" PROP(
"units" "A"
)
"Vn_GND:pwr" "W" PROP(
"units" "W"
)
"Vn_SD:v" "V" PROP(
"units" "V"
)
"Vn_SD:i" "A" PROP(
"units" "A"
)
"Vn_SD:pwr" "W" PROP(
"units" "W"
)
"Vn_VDD:v" "V" PROP(
"units" "V"
)
"Vn_VDD:i" "A" PROP(
"units" "A"
)
"Vn_VDD:pwr" "W" PROP(
"units" "W"
)
"Vn_Z:v" "V" PROP(
"units" "V"
)
"Vn_Z:i" "A" PROP(
"units" "A"
)
"Vn_Z:pwr" "W" PROP(
"units" "W"
)
"n_Z" "V"
"n_D1" "V"
"n_SD" "V"
"Vn_D1:n" "I"
"Vn_D1:p" "I"
"Vn_GND:n" "I"
"Vn_GND:p" "I"
"Vn_SD:n" "I"
"Vn_SD:p" "I"
"Vn_VDD:n" "I"
"Vn_VDD:p" "I"
"Vn_Z:n" "I"
"Vn_Z:p" "I"
VALUE
"time" 0.000000000000000e+00
"Vn_D1:v" 0.000000000000000e+00
"Vn_D1:i" 7.517119452868272e-14
"Vn_D1:pwr" 0.000000000000000e+00
"Vn_GND:v" 0.000000000000000e+00
"Vn_GND:i" 2.548493107915354e-10
"Vn_GND:pwr" 0.000000000000000e+00
"Vn_SD:v" 0.000000000000000e+00
"Vn_SD:i" -5.105704018311277e-13
"Vn_SD:pwr" -0.000000000000000e+00
"Vn_VDD:v" 1.200000000000000e+00
"Vn_VDD:i" -2.544688430804970e-10
"Vn_VDD:pwr" -3.053626116965964e-10
"Vn_Z:v" 0.000000000000000e+00
"Vn_Z:i" 0.000000000000000e+00
"Vn_Z:pwr" 0.000000000000000e+00
"n_Z" 1.199999494927445e+00
"n_D1" 0.000000000000000e+00
"n_SD" 1.200000000000000e+00
"Vn_D1:n" -7.517119452868272e-14
"Vn_D1:p" 7.517119452868272e-14
"Vn_GND:n" -2.548493107915354e-10
"Vn_GND:p" 2.548493107915354e-10
"Vn_SD:n" 5.105704018311277e-13
"Vn_SD:p" -5.105704018311277e-13
"Vn_VDD:n" 2.544688430804970e-10
"Vn_VDD:p" -2.544688430804970e-10
"Vn_Z:n" 0.000000000000000e+00
"Vn_Z:p" 0.000000000000000e+00
"time" 3.900000000000000e-11
"Vn_D1:v" 0.000000000000000e+00
"Vn_D1:i" 7.486572190205696e-14
"Vn_D1:pwr" 0.000000000000000e+00
"Vn_GND:v" 0.000000000000000e+00
"Vn_GND:i" 2.548643621448545e-10
"Vn_GND:pwr" 0.000000000000000e+00
"Vn_SD:v" 0.000000000000000e+00
"Vn_SD:i" -5.109539655386612e-13
"Vn_SD:pwr" -0.000000000000000e+00
"Vn_VDD:v" 1.200000000000000e+00
"Vn_VDD:i" -2.544782074622644e-10
"Vn_VDD:pwr" -3.053738489547173e-10
"Vn_Z:v" 0.000000000000000e+00
"Vn_Z:i" -4.997934614329372e-15
"Vn_Z:pwr" -0.000000000000000e+00
"n_Z" 1.199999494890667e+00
"n_D1" 0.000000000000000e+00
"n_SD" 1.200000000000000e+00
"Vn_D1:n" -7.486572190205696e-14
"Vn_D1:p" 7.486572190205696e-14
"Vn_GND:n" -2.548643621448545e-10
"Vn_GND:p" 2.548643621448545e-10
"Vn_SD:n" 5.109539655386612e-13
"Vn_SD:p" -5.109539655386612e-13
"Vn_VDD:n" 2.544782074622644e-10
"Vn_VDD:p" -2.544782074622644e-10
"Vn_Z:n" 4.997934614329372e-15
"Vn_Z:p" -4.997934614329372e-15
"time" 1.170000000000000e-10
"Vn_D1:v" 0.000000000000000e+00
"Vn_D1:i" 7.504720783815609e-14
"Vn_D1:pwr" 0.000000000000000e+00
"Vn_GND:v" 0.000000000000000e+00
"Vn_GND:i" 2.548656890108300e-10
"Vn_GND:pwr" 0.000000000000000e+00
"Vn_SD:v" 0.000000000000000e+00
"Vn_SD:i" -5.107122044050233e-13
"Vn_SD:pwr" -0.000000000000000e+00
"Vn_VDD:v" 1.200000000000000e+00
"Vn_VDD:i" -2.544832957145156e-10
"Vn_VDD:pwr" -3.053799548574188e-10
"Vn_Z:v" 0.000000000000000e+00
"Vn_Z:i" -1.659789553845745e-15
"Vn_Z:pwr" -0.000000000000000e+00
"n_Z" 1.199999494866240e+00
"n_D1" 0.000000000000000e+00
"n_SD" 1.200000000000000e+00
"Vn_D1:n" -7.504720783815609e-14
"Vn_D1:p" 7.504720783815609e-14
"Vn_GND:n" -2.548656890108300e-10
"Vn_GND:p" 2.548656890108300e-10
"Vn_SD:n" 5.107122044050233e-13
"Vn_SD:p" -5.107122044050233e-13
"Vn_VDD:n" 2.544832957145156e-10
"Vn_VDD:p" -2.544832957145156e-10
"Vn_Z:n" 1.659789553845745e-15
"Vn_Z:p" -1.659789553845745e-15
"time" 2.730000000000000e-10
"Vn_D1:v" 0.000000000000000e+00
"Vn_D1:i" 7.521052252154300e-14
"Vn_D1:pwr" 0.000000000000000e+00
"Vn_GND:v" 0.000000000000000e+00
"Vn_GND:i" 2.548665199421138e-10
"Vn_GND:pwr" 0.000000000000000e+00
"Vn_SD:v" 0.000000000000000e+00
"Vn_SD:i" -5.105251034499396e-13
"Vn_SD:pwr" -0.000000000000000e+00
"Vn_VDD:v" 1.200000000000000e+00
"Vn_VDD:i" -2.544866860931600e-10
"Vn_VDD:pwr" -3.053840233117919e-10
"Vn_Z:v" 0.000000000000000e+00
"Vn_Z:i" 5.466494753238081e-16
"Vn_Z:pwr" 0.000000000000000e+00
"n_Z" 1.199999494849858e+00
"n_D1" 0.000000000000000e+00
"n_SD" 1.200000000000000e+00
"Vn_D1:n" -7.521052252154300e-14
"Vn_D1:p" 7.521052252154300e-14
"Vn_GND:n" -2.548665199421138e-10
"Vn_GND:p" 2.548665199421138e-10
"Vn_SD:n" 5.105251034499396e-13
"Vn_SD:p" -5.105251034499396e-13
"Vn_VDD:n" 2.544866860931600e-10
"Vn_VDD:p" -2.544866860931600e-10
"Vn_Z:n" -5.466494753238081e-16
"Vn_Z:p" 5.466494753238081e-16
"time" 5.850000000000002e-10
"Vn_D1:v" 0.000000000000000e+00
"Vn_D1:i" 7.514874514693752e-14
"Vn_D1:pwr" 0.000000000000000e+00
"Vn_GND:v" 0.000000000000000e+00
"Vn_GND:i" 2.548661678501857e-10
"Vn_GND:pwr" 0.000000000000000e+00
"Vn_SD:v" 0.000000000000000e+00
"Vn_SD:i" -5.105964633367767e-13
"Vn_SD:pwr" -0.000000000000000e+00
"Vn_VDD:v" 1.200000000000000e+00
"Vn_VDD:i" -2.544853280655465e-10
"Vn_VDD:pwr" -3.053823936786558e-10
"Vn_Z:v" 0.000000000000000e+00
"Vn_Z:i" -3.240874595430742e-16
"Vn_Z:pwr" -0.000000000000000e+00
"n_Z" 1.199999494856409e+00
"n_D1" 0.000000000000000e+00
"n_SD" 1.200000000000000e+00
"Vn_D1:n" -7.514874514693752e-14
"Vn_D1:p" 7.514874514693752e-14
"Vn_GND:n" -2.548661678501857e-10
"Vn_GND:p" 2.548661678501857e-10
"Vn_SD:n" 5.105964633367767e-13
"Vn_SD:p" -5.105964633367767e-13
"Vn_VDD:n" 2.544853280655465e-10
"Vn_VDD:p" -2.544853280655465e-10
"Vn_Z:n" 3.240874595430742e-16
"Vn_Z:p" -3.240874595430742e-16
"time" 1.209000000000000e-09
"Vn_D1:v" 0.000000000000000e+00
"Vn_D1:i" 7.518844887533135e-14
"Vn_D1:pwr" 0.000000000000000e+00
"Vn_GND:v" 0.000000000000000e+00
"Vn_GND:i" 2.548663544400388e-10
"Vn_GND:pwr" 0.000000000000000e+00
"Vn_SD:v" 0.000000000000000e+00
"Vn_SD:i" -5.105502449246195e-13
"Vn_SD:pwr" -0.000000000000000e+00
"Vn_VDD:v" 1.200000000000000e+00
"Vn_VDD:i" -2.544861707905690e-10
"Vn_VDD:pwr" -3.053834049486828e-10
"Vn_Z:v" 0.000000000000000e+00
"Vn_Z:i" 2.541637401043256e-16
"Vn_Z:pwr" 0.000000000000000e+00
"n_Z" 1.199999494852293e+00
"n_D1" 0.000000000000000e+00
"n_SD" 1.200000000000000e+00
"Vn_D1:n" -7.518844887533135e-14
"Vn_D1:p" 7.518844887533135e-14
"Vn_GND:n" -2.548663544400388e-10
"Vn_GND:p" 2.548663544400388e-10
"Vn_SD:n" 5.105502449246195e-13
"Vn_SD:p" -5.105502449246195e-13
"Vn_VDD:n" 2.544861707905690e-10
"Vn_VDD:p" -2.544861707905690e-10
"Vn_Z:n" -2.541637401043256e-16
"Vn_Z:p" 2.541637401043256e-16
"time" 1.989000000000000e-09
"Vn_D1:v" 0.000000000000000e+00
"Vn_D1:i" 7.515749831639041e-14
"Vn_D1:pwr" 0.000000000000000e+00
"Vn_GND:v" 0.000000000000000e+00
"Vn_GND:i" 2.548661292198574e-10
"Vn_GND:pwr" 0.000000000000000e+00
"Vn_SD:v" 0.000000000000000e+00
"Vn_SD:i" -5.105864911817631e-13
"Vn_SD:pwr" -0.000000000000000e+00
"Vn_VDD:v" 1.200000000000000e+00
"Vn_VDD:i" -2.544854333665171e-10
"Vn_VDD:pwr" -3.053825200398205e-10
"Vn_Z:v" 0.000000000000000e+00
"Vn_Z:i" -2.056282943702339e-16
"Vn_Z:pwr" -0.000000000000000e+00
"n_Z" 1.199999494855865e+00
"n_D1" 0.000000000000000e+00
"n_SD" 1.200000000000000e+00
"Vn_D1:n" -7.515749831639041e-14
"Vn_D1:p" 7.515749831639041e-14
"Vn_GND:n" -2.548661292198574e-10
"Vn_GND:p" 2.548661292198574e-10
"Vn_SD:n" 5.105864911817631e-13
"Vn_SD:p" -5.105864911817631e-13
"Vn_VDD:n" 2.544854333665171e-10
"Vn_VDD:p" -2.544854333665171e-10
"Vn_Z:n" 2.056282943702339e-16
"Vn_Z:p" -2.056282943702339e-16
"time" 2.769000000000001e-09
"Vn_D1:v" 0.000000000000000e+00
"Vn_D1:i" 7.518218490161435e-14
"Vn_D1:pwr" 0.000000000000000e+00
"Vn_GND:v" 0.000000000000000e+00
"Vn_GND:i" 2.548662313840396e-10
"Vn_GND:pwr" 0.000000000000000e+00
"Vn_SD:v" 0.000000000000000e+00
"Vn_SD:i" -5.105574032383959e-13
"Vn_SD:pwr" -0.000000000000000e+00
"Vn_VDD:v" 1.200000000000000e+00
"Vn_VDD:i" -2.544859555403002e-10
"Vn_VDD:pwr" -3.053831466483602e-10
"Vn_Z:v" 0.000000000000000e+00
"Vn_Z:i" 1.707809970322049e-16
"Vn_Z:pwr" 0.000000000000000e+00
"n_Z" 1.199999494853300e+00
"n_D1" 0.000000000000000e+00
"n_SD" 1.200000000000000e+00
"Vn_D1:n" -7.518218490161435e-14
"Vn_D1:p" 7.518218490161435e-14
"Vn_GND:n" -2.548662313840396e-10
"Vn_GND:p" 2.548662313840396e-10
"Vn_SD:n" 5.105574032383959e-13
"Vn_SD:p" -5.105574032383959e-13
"Vn_VDD:n" 2.544859555403002e-10
"Vn_VDD:p" -2.544859555403002e-10
"Vn_Z:n" -1.707809970322049e-16
"Vn_Z:p" 1.707809970322049e-16
"time" 3.000000000000000e-09
"Vn_D1:v" 0.000000000000000e+00
"Vn_D1:i" 7.516665700345354e-14
"Vn_D1:pwr" 0.000000000000000e+00
"Vn_GND:v" 0.000000000000000e+00
"Vn_GND:i" 2.548661167385587e-10
"Vn_GND:pwr" 0.000000000000000e+00
"Vn_SD:v" 0.000000000000000e+00
"Vn_SD:i" -5.105759949366656e-13
"Vn_SD:pwr" -0.000000000000000e+00
"Vn_VDD:v" 1.200000000000000e+00
"Vn_VDD:i" -2.544855592696727e-10
"Vn_VDD:pwr" -3.053826711236072e-10
"Vn_Z:v" 0.000000000000000e+00
"Vn_Z:i" -8.268552450756224e-17
"Vn_Z:pwr" -0.000000000000000e+00
"n_Z" 1.199999494855220e+00
"n_D1" 0.000000000000000e+00
"n_SD" 1.200000000000000e+00
"Vn_D1:n" -7.516665700345354e-14
"Vn_D1:p" 7.516665700345354e-14
"Vn_GND:n" -2.548661167385587e-10
"Vn_GND:p" 2.548661167385587e-10
"Vn_SD:n" 5.105759949366656e-13
"Vn_SD:p" -5.105759949366656e-13
"Vn_VDD:n" 2.544855592696727e-10
"Vn_VDD:p" -2.544855592696727e-10
"Vn_Z:n" 8.268552450756224e-17
"Vn_Z:p" -8.268552450756224e-17
"time" 3.010000000000000e-09
"Vn_D1:v" 0.000000000000000e+00
"Vn_D1:i" 7.516697558744283e-14
"Vn_D1:pwr" 0.000000000000000e+00
"Vn_GND:v" 0.000000000000000e+00
"Vn_GND:i" 2.548661257221540e-10
"Vn_GND:pwr" 0.000000000000000e+00
"Vn_SD:v" 0.000000000000000e+00
"Vn_SD:i" -5.105754738614977e-13
"Vn_SD:pwr" -0.000000000000000e+00
"Vn_VDD:v" 1.200000000000000e+00
"Vn_VDD:i" -2.544855834801150e-10
"Vn_VDD:pwr" -3.053827001761380e-10
"Vn_Z:v" 0.000000000000000e+00
"Vn_Z:i" -6.520532756700224e-17
"Vn_Z:pwr" -0.000000000000000e+00
"n_Z" 1.199999494855097e+00
"n_D1" 0.000000000000000e+00
"n_SD" 1.200000000000000e+00
"Vn_D1:n" -7.516697558744283e-14
"Vn_D1:p" 7.516697558744283e-14
"Vn_GND:n" -2.548661257221540e-10
"Vn_GND:p" 2.548661257221540e-10
"Vn_SD:n" 5.105754738614977e-13
"Vn_SD:p" -5.105754738614977e-13
"Vn_VDD:n" 2.544855834801150e-10
"Vn_VDD:p" -2.544855834801150e-10
"Vn_Z:n" 6.520532756700224e-17
"Vn_Z:p" -6.520532756700224e-17
"time" 3.030000000000000e-09
"Vn_D1:v" 0.000000000000000e+00
"Vn_D1:i" 7.516803599395818e-14
"Vn_D1:pwr" 0.000000000000000e+00
"Vn_GND:v" 0.000000000000000e+00
"Vn_GND:i" 2.548661331575998e-10
"Vn_GND:pwr" 0.000000000000000e+00
"Vn_SD:v" 0.000000000000000e+00
"Vn_SD:i" -5.105739871702620e-13
"Vn_SD:pwr" -0.000000000000000e+00
"Vn_VDD:v" 1.200000000000000e+00
"Vn_VDD:i" -2.544856162595419e-10
"Vn_VDD:pwr" -3.053827395114503e-10
"Vn_Z:v" 0.000000000000000e+00
"Vn_Z:i" -4.242406298021749e-17
"Vn_Z:pwr" -0.000000000000000e+00
"n_Z" 1.199999494854937e+00
"n_D1" 0.000000000000000e+00
"n_SD" 1.200000000000000e+00
"Vn_D1:n" -7.516803599395818e-14
"Vn_D1:p" 7.516803599395818e-14
"Vn_GND:n" -2.548661331575998e-10
"Vn_GND:p" 2.548661331575998e-10
"Vn_SD:n" 5.105739871702620e-13
"Vn_SD:p" -5.105739871702620e-13
"Vn_VDD:n" 2.544856162595419e-10
"Vn_VDD:p" -2.544856162595419e-10
"Vn_Z:n" 4.242406298021749e-17
"Vn_Z:p" -4.242406298021749e-17
"time" 3.070000000000001e-09
"Vn_D1:v" 0.000000000000000e+00
"Vn_D1:i" 7.516998729950992e-14
"Vn_D1:pwr" 0.000000000000000e+00
"Vn_GND:v" 0.000000000000000e+00
"Vn_GND:i" 2.548661412414851e-10
"Vn_GND:pwr" 0.000000000000000e+00
"Vn_SD:v" 0.000000000000000e+00
"Vn_SD:i" -5.105717436553077e-13
"Vn_SD:pwr" -0.000000000000000e+00
"Vn_VDD:v" 1.200000000000000e+00
"Vn_VDD:i" -2.544856627809473e-10
"Vn_VDD:pwr" -3.053827953371367e-10
"Vn_Z:v" 0.000000000000000e+00
"Vn_Z:i" -1.445995040532869e-17
"Vn_Z:pwr" -0.000000000000000e+00
"n_Z" 1.199999494854722e+00
"n_D1" 0.000000000000000e+00
"n_SD" 1.200000000000000e+00
"Vn_D1:n" -7.516998729950992e-14
"Vn_D1:p" 7.516998729950992e-14
"Vn_GND:n" -2.548661412414851e-10
"Vn_GND:p" 2.548661412414851e-10
"Vn_SD:n" 5.105717436553077e-13
"Vn_SD:p" -5.105717436553077e-13
"Vn_VDD:n" 2.544856627809473e-10
"Vn_VDD:p" -2.544856627809473e-10
"Vn_Z:n" 1.445995040532869e-17
"Vn_Z:p" -1.445995040532869e-17
"time" 3.150000000000003e-09
"Vn_D1:v" 0.000000000000000e+00
"Vn_D1:i" 7.517165902255450e-14
"Vn_D1:pwr" 0.000000000000000e+00
"Vn_GND:v" 0.000000000000000e+00
"Vn_GND:i" 2.548661436932339e-10
"Vn_GND:pwr" 0.000000000000000e+00
"Vn_SD:v" 0.000000000000000e+00
"Vn_SD:i" -5.105699518696095e-13
"Vn_SD:pwr" -0.000000000000000e+00
"Vn_VDD:v" 1.200000000000000e+00
"Vn_VDD:i" -2.544856737868422e-10
"Vn_VDD:pwr" -3.053828085442106e-10
"Vn_Z:v" 0.000000000000000e+00
"Vn_Z:i" 4.214110408009304e-18
"Vn_Z:pwr" 0.000000000000000e+00
"n_Z" 1.199999494854645e+00
"n_D1" 0.000000000000000e+00
"n_SD" 1.200000000000000e+00
"Vn_D1:n" -7.517165902255450e-14
"Vn_D1:p" 7.517165902255450e-14
"Vn_GND:n" -2.548661436932339e-10
"Vn_GND:p" 2.548661436932339e-10
"Vn_SD:n" 5.105699518696095e-13
"Vn_SD:p" -5.105699518696095e-13
"Vn_VDD:n" 2.544856737868422e-10
"Vn_VDD:p" -2.544856737868422e-10
"Vn_Z:n" -4.214110408009304e-18
"Vn_Z:p" 4.214110408009304e-18
"time" 3.310000000000005e-09
"Vn_D1:v" 0.000000000000000e+00
"Vn_D1:i" 7.517080837887438e-14
"Vn_D1:pwr" 0.000000000000000e+00
"Vn_GND:v" 0.000000000000000e+00
"Vn_GND:i" 2.548661317489030e-10
"Vn_GND:pwr" 0.000000000000000e+00
"Vn_SD:v" 0.000000000000000e+00
"Vn_SD:i" -5.105707009192095e-13
"Vn_SD:pwr" -0.000000000000000e+00
"Vn_VDD:v" 1.200000000000000e+00
"Vn_VDD:i" -2.544856697405050e-10
"Vn_VDD:pwr" -3.053828036886060e-10
"Vn_Z:v" 0.000000000000000e+00
"Vn_Z:i" -1.443162436807720e-18
"Vn_Z:pwr" -0.000000000000000e+00
"n_Z" 1.199999494854687e+00
"n_D1" 0.000000000000000e+00
"n_SD" 1.200000000000000e+00
"Vn_D1:n" -7.517080837887438e-14
"Vn_D1:p" 7.517080837887438e-14
"Vn_GND:n" -2.548661317489030e-10
"Vn_GND:p" 2.548661317489030e-10
"Vn_SD:n" 5.105707009192095e-13
"Vn_SD:p" -5.105707009192095e-13
"Vn_VDD:n" 2.544856697405050e-10
"Vn_VDD:p" -2.544856697405050e-10
"Vn_Z:n" 1.443162436807720e-18
"Vn_Z:p" -1.443162436807720e-18
"time" 3.630000000000011e-09
"Vn_D1:v" 0.000000000000000e+00
"Vn_D1:i" 7.517186152483698e-14
"Vn_D1:pwr" 0.000000000000000e+00
"Vn_GND:v" 0.000000000000000e+00
"Vn_GND:i" 2.548661166434885e-10
"Vn_GND:pwr" 0.000000000000000e+00
"Vn_SD:v" 0.000000000000000e+00
"Vn_SD:i" -5.105697973989442e-13
"Vn_SD:pwr" -0.000000000000000e+00
"Vn_VDD:v" 1.200000000000000e+00
"Vn_VDD:i" -2.544856482255921e-10
"Vn_VDD:pwr" -3.053827778707106e-10
"Vn_Z:v" 0.000000000000000e+00
"Vn_Z:i" 3.804440502624498e-18
"Vn_Z:pwr" 0.000000000000000e+00
"n_Z" 1.199999494854759e+00
"n_D1" 0.000000000000000e+00
"n_SD" 1.200000000000000e+00
"Vn_D1:n" -7.517186152483698e-14
"Vn_D1:p" 7.517186152483698e-14
"Vn_GND:n" -2.548661166434885e-10
"Vn_GND:p" 2.548661166434885e-10
"Vn_SD:n" 5.105697973989442e-13
"Vn_SD:p" -5.105697973989442e-13
"Vn_VDD:n" 2.544856482255921e-10
"Vn_VDD:p" -2.544856482255921e-10
"Vn_Z:n" -3.804440502624498e-18
"Vn_Z:p" 3.804440502624498e-18
"time" 4.270000000000022e-09
"Vn_D1:v" 0.000000000000000e+00
"Vn_D1:i" 7.517074165211311e-14
"Vn_D1:pwr" 0.000000000000000e+00
"Vn_GND:v" 0.000000000000000e+00
"Vn_GND:i" 2.548660755590889e-10
"Vn_GND:pwr" 0.000000000000000e+00
"Vn_SD:v" 0.000000000000000e+00
"Vn_SD:i" -5.105707290698435e-13
"Vn_SD:pwr" -0.000000000000000e+00
"Vn_VDD:v" 1.200000000000000e+00
"Vn_VDD:i" -2.544856073083372e-10
"Vn_VDD:pwr" -3.053827287700046e-10
"Vn_Z:v" 0.000000000000000e+00
"Vn_Z:i" -7.525071543683519e-19
"Vn_Z:pwr" -0.000000000000000e+00
"n_Z" 1.199999494854943e+00
"n_D1" 0.000000000000000e+00
"n_SD" 1.200000000000000e+00
"Vn_D1:n" -7.517074165211311e-14
"Vn_D1:p" 7.517074165211311e-14
"Vn_GND:n" -2.548660755590889e-10
"Vn_GND:p" 2.548660755590889e-10
"Vn_SD:n" 5.105707290698435e-13
"Vn_SD:p" -5.105707290698435e-13
"Vn_VDD:n" 2.544856073083372e-10
"Vn_VDD:p" -2.544856073083372e-10
"Vn_Z:n" 7.525071543683519e-19
"Vn_Z:p" -7.525071543683519e-19
"time" 5.050000000000022e-09
"Vn_D1:v" 0.000000000000000e+00
"Vn_D1:i" 7.517181837723478e-14
"Vn_D1:pwr" 0.000000000000000e+00
"Vn_GND:v" 0.000000000000000e+00
"Vn_GND:i" 2.548660337773209e-10
"Vn_GND:pwr" 0.000000000000000e+00
"Vn_SD:v" 0.000000000000000e+00
"Vn_SD:i" -5.105698969659103e-13
"Vn_SD:pwr" -0.000000000000000e+00
"Vn_VDD:v" 1.200000000000000e+00
"Vn_VDD:i" -2.544855704378178e-10
"Vn_VDD:pwr" -3.053826845253814e-10
"Vn_Z:v" 0.000000000000000e+00
"Vn_Z:i" 2.840182589521068e-18
"Vn_Z:pwr" 0.000000000000000e+00
"n_Z" 1.199999494855096e+00
"n_D1" 0.000000000000000e+00
"n_SD" 1.200000000000000e+00
"Vn_D1:n" -7.517181837723478e-14
"Vn_D1:p" 7.517181837723478e-14
"Vn_GND:n" -2.548660337773209e-10
"Vn_GND:p" 2.548660337773209e-10
"Vn_SD:n" 5.105698969659103e-13
"Vn_SD:p" -5.105698969659103e-13
"Vn_VDD:n" 2.544855704378178e-10
"Vn_VDD:p" -2.544855704378178e-10
"Vn_Z:n" -2.840182589521068e-18
"Vn_Z:p" 2.840182589521068e-18
"time" 5.830000000000022e-09
"Vn_D1:v" 0.000000000000000e+00
"Vn_D1:i" 7.517087835811967e-14
"Vn_D1:pwr" 0.000000000000000e+00
"Vn_GND:v" 0.000000000000000e+00
"Vn_GND:i" 2.548659860785599e-10
"Vn_GND:pwr" 0.000000000000000e+00
"Vn_SD:v" 0.000000000000000e+00
"Vn_SD:i" -5.105705025317315e-13
"Vn_SD:pwr" -0.000000000000000e+00
"Vn_VDD:v" 1.200000000000000e+00
"Vn_VDD:i" -2.544855173730997e-10
"Vn_VDD:pwr" -3.053826208477197e-10
"Vn_Z:v" 0.000000000000000e+00
"Vn_Z:i" 4.377781590906150e-19
"Vn_Z:pwr" 0.000000000000000e+00
"n_Z" 1.199999494855337e+00
"n_D1" 0.000000000000000e+00
"n_SD" 1.200000000000000e+00
"Vn_D1:n" -7.517087835811967e-14
"Vn_D1:p" 7.517087835811967e-14
"Vn_GND:n" -2.548659860785599e-10
"Vn_GND:p" 2.548659860785599e-10
"Vn_SD:n" 5.105705025317315e-13
"Vn_SD:p" -5.105705025317315e-13
"Vn_VDD:n" 2.544855173730997e-10
"Vn_VDD:p" -2.544855173730997e-10
"Vn_Z:n" -4.377781590906150e-19
"Vn_Z:p" 4.377781590906150e-19
"time" 6.010000000000000e-09
"Vn_D1:v" 0.000000000000000e+00
"Vn_D1:i" 7.517166183915761e-14
"Vn_D1:pwr" 0.000000000000000e+00
"Vn_GND:v" 0.000000000000000e+00
"Vn_GND:i" 2.548659767635716e-10
"Vn_GND:pwr" 0.000000000000000e+00
"Vn_SD:v" 0.000000000000000e+00
"Vn_SD:i" -5.105702859760672e-13
"Vn_SD:pwr" -0.000000000000000e+00
"Vn_VDD:v" 1.200000000000000e+00
"Vn_VDD:i" -2.544855123328118e-10
"Vn_VDD:pwr" -3.053826147993742e-10
"Vn_Z:v" 0.000000000000000e+00
"Vn_Z:i" 1.046024974043806e-19
"Vn_Z:pwr" 0.000000000000000e+00
"n_Z" 1.199999494855347e+00
"n_D1" 0.000000000000000e+00
"n_SD" 1.200000000000000e+00
"Vn_D1:n" -7.517166183915761e-14
"Vn_D1:p" 7.517166183915761e-14
"Vn_GND:n" -2.548659767635716e-10
"Vn_GND:p" 2.548659767635716e-10
"Vn_SD:n" 5.105702859760672e-13
"Vn_SD:p" -5.105702859760672e-13
"Vn_VDD:n" 2.544855123328118e-10
"Vn_VDD:p" -2.544855123328118e-10
"Vn_Z:n" -1.046024974043806e-19
"Vn_Z:p" 1.046024974043806e-19
"time" 6.019999743400000e-09
"Vn_D1:v" 0.000000000000000e+00
"Vn_D1:i" 7.517099631403467e-14
"Vn_D1:pwr" 0.000000000000000e+00
"Vn_GND:v" 0.000000000000000e+00
"Vn_GND:i" 2.548659761543729e-10
"Vn_GND:pwr" 0.000000000000000e+00
"Vn_SD:v" 0.000000000000000e+00
"Vn_SD:i" -5.105700146633529e-13
"Vn_SD:pwr" -0.000000000000000e+00
"Vn_VDD:v" 1.200000000000000e+00
"Vn_VDD:i" -2.544855118586285e-10
"Vn_VDD:pwr" -3.053826142303542e-10
"Vn_Z:v" 0.000000000000000e+00
"Vn_Z:i" 3.209662248249086e-18
"Vn_Z:pwr" 0.000000000000000e+00
"n_Z" 1.199999494855353e+00
"n_D1" 0.000000000000000e+00
"n_SD" 1.200000000000000e+00
"Vn_D1:n" -7.517099631403467e-14
"Vn_D1:p" 7.517099631403467e-14
"Vn_GND:n" -2.548659761543729e-10
"Vn_GND:p" 2.548659761543729e-10
"Vn_SD:n" 5.105700146633529e-13
"Vn_SD:p" -5.105700146633529e-13
"Vn_VDD:n" 2.544855118586285e-10
"Vn_VDD:p" -2.544855118586285e-10
"Vn_Z:n" -3.209662248249086e-18
"Vn_Z:p" 3.209662248249086e-18
"time" 6.020000000000000e-09
"Vn_D1:v" 0.000000000000000e+00
"Vn_D1:i" -1.075155978014102e-06
"Vn_D1:pwr" -0.000000000000000e+00
"Vn_GND:v" 0.000000000000000e+00
"Vn_GND:i" 1.931705644109230e-07
"Vn_GND:pwr" 0.000000000000000e+00
"Vn_SD:v" 0.000000000000000e+00
"Vn_SD:i" 5.439210904998342e-11
"Vn_SD:pwr" 0.000000000000000e+00
"Vn_VDD:v" 1.200000000000000e+00
"Vn_VDD:i" 8.819306854857413e-07
"Vn_VDD:pwr" 1.058316822582889e-06
"Vn_Z:v" 0.000000000000000e+00
"Vn_Z:i" 2.811878994030333e-13
"Vn_Z:pwr" 0.000000000000000e+00
"n_Z" 1.199999494855366e+00
"n_D1" 2.456722197575741e-07
"n_SD" 1.200000000000000e+00
"Vn_D1:n" 1.075155978014102e-06
"Vn_D1:p" -1.075155978014102e-06
"Vn_GND:n" -1.931705644109230e-07
"Vn_GND:p" 1.931705644109230e-07
"Vn_SD:n" -5.439210904998342e-11
"Vn_SD:p" 5.439210904998342e-11
"Vn_VDD:n" -8.819306854857413e-07
"Vn_VDD:p" 8.819306854857413e-07
"Vn_Z:n" -2.811878994030333e-13
"Vn_Z:p" 2.811878994030333e-13
"time" 6.020000513200001e-09
"Vn_D1:v" 0.000000000000000e+00
"Vn_D1:i" -1.076410567929275e-06
"Vn_D1:pwr" -0.000000000000000e+00
"Vn_GND:v" 0.000000000000000e+00
"Vn_GND:i" 1.933874230288465e-07
"Vn_GND:pwr" 0.000000000000000e+00
"Vn_SD:v" 0.000000000000000e+00
"Vn_SD:i" 1.638502004088472e-10
"Vn_SD:pwr" 0.000000000000000e+00
"Vn_VDD:v" 1.200000000000000e+00
"Vn_VDD:i" 8.828572901986450e-07
"Vn_VDD:pwr" 1.059428748238374e-06
"Vn_Z:v" 0.000000000000000e+00
"Vn_Z:i" 1.951229452559052e-12
"Vn_Z:pwr" 0.000000000000000e+00
"n_Z" 1.199999494855555e+00
"n_D1" 7.370166592727224e-07
"n_SD" 1.200000000000000e+00
"Vn_D1:n" 1.076410567929275e-06
"Vn_D1:p" -1.076410567929275e-06
"Vn_GND:n" -1.933874230288465e-07
"Vn_GND:p" 1.933874230288465e-07
"Vn_SD:n" -1.638502004088472e-10
"Vn_SD:p" 1.638502004088472e-10
"Vn_VDD:n" -8.828572901986450e-07
"Vn_VDD:p" 8.828572901986450e-07
"Vn_Z:n" -1.951229452559052e-12
"Vn_Z:p" 1.951229452559052e-12
"time" 6.020001539600004e-09
"Vn_D1:v" 0.000000000000000e+00
"Vn_D1:i" -1.078910639092484e-06
"Vn_D1:pwr" -0.000000000000000e+00
"Vn_GND:v" 0.000000000000000e+00
"Vn_GND:i" 1.938196692772473e-07
"Vn_GND:pwr" 0.000000000000000e+00
"Vn_SD:v" 0.000000000000000e+00
"Vn_SD:i" 3.820674522874464e-10
"Vn_SD:pwr" 0.000000000000000e+00
"Vn_VDD:v" 1.200000000000000e+00
"Vn_VDD:i" 8.847013727192924e-07
"Vn_VDD:pwr" 1.061641647263151e-06
"Vn_Z:v" 0.000000000000000e+00
"Vn_Z:i" 7.472891013564698e-12
"Vn_Z:pwr" 0.000000000000000e+00
"n_Z" 1.199999494856467e+00
"n_D1" 1.719705538303019e-06
"n_SD" 1.200000000000000e+00
"Vn_D1:n" 1.078910639092484e-06
"Vn_D1:p" -1.078910639092484e-06
"Vn_GND:n" -1.938196692772473e-07
"Vn_GND:p" 1.938196692772473e-07
"Vn_SD:n" -3.820674522874464e-10
"Vn_SD:p" 3.820674522874464e-10
"Vn_VDD:n" -8.847013727192924e-07
"Vn_VDD:p" 8.847013727192924e-07
"Vn_Z:n" -7.472891013564698e-12
"Vn_Z:p" 7.472891013564698e-12
"time" 6.020003592400008e-09
"Vn_D1:v" 0.000000000000000e+00
"Vn_D1:i" -1.083856409415706e-06
"Vn_D1:pwr" -0.000000000000000e+00
"Vn_GND:v" 0.000000000000000e+00
"Vn_GND:i" 1.946754568078407e-07
"Vn_GND:pwr" 0.000000000000000e+00
"Vn_SD:v" 0.000000000000000e+00
"Vn_SD:i" 8.143629964345074e-10
"Vn_SD:pwr" 0.000000000000000e+00
"Vn_VDD:v" 1.200000000000000e+00
"Vn_VDD:i" 8.883353255942392e-07
"Vn_VDD:pwr" 1.066002390713087e-06
"Vn_Z:v" 0.000000000000000e+00
"Vn_Z:i" 3.121147707801218e-11
"Vn_Z:pwr" 0.000000000000000e+00
"n_Z" 1.199999494863959e+00
"n_D1" 3.685083296363612e-06
"n_SD" 1.200000000000000e+00
"Vn_D1:n" 1.083856409415706e-06
"Vn_D1:p" -1.083856409415706e-06
"Vn_GND:n" -1.946754568078407e-07
"Vn_GND:p" 1.946754568078407e-07
"Vn_SD:n" -8.143629964345074e-10
"Vn_SD:p" 8.143629964345074e-10
"Vn_VDD:n" -8.883353255942392e-07
"Vn_VDD:p" 8.883353255942392e-07
"Vn_Z:n" -3.121147707801218e-11
"Vn_Z:p" 3.121147707801218e-11
"time" 6.020007698000017e-09
"Vn_D1:v" 0.000000000000000e+00
"Vn_D1:i" -1.093535525380126e-06
"Vn_D1:pwr" -0.000000000000000e+00
"Vn_GND:v" 0.000000000000000e+00
"Vn_GND:i" 1.963525736652972e-07
"Vn_GND:pwr" 0.000000000000000e+00
"Vn_SD:v" 0.000000000000000e+00
"Vn_SD:i" 1.662535676194773e-09
"Vn_SD:pwr" 0.000000000000000e+00
"Vn_VDD:v" 1.200000000000000e+00
"Vn_VDD:i" 8.953946282960773e-07
"Vn_VDD:pwr" 1.074473553955293e-06
"Vn_Z:v" 0.000000000000000e+00
"Vn_Z:i" 1.257305992726352e-10
"Vn_Z:pwr" 0.000000000000000e+00
"n_Z" 1.199999494924746e+00
"n_D1" 7.615838812484797e-06
"n_SD" 1.200000000000000e+00
"Vn_D1:n" 1.093535525380126e-06
"Vn_D1:p" -1.093535525380126e-06
"Vn_GND:n" -1.963525736652972e-07
"Vn_GND:p" 1.963525736652972e-07
"Vn_SD:n" -1.662535676194773e-09
"Vn_SD:p" 1.662535676194773e-09
"Vn_VDD:n" -8.953946282960773e-07
"Vn_VDD:p" 8.953946282960773e-07
"Vn_Z:n" -1.257305992726352e-10
"Vn_Z:p" 1.257305992726352e-10
"time" 6.020015909200036e-09
"Vn_D1:v" 0.000000000000000e+00
"Vn_D1:i" -1.112079782098372e-06
"Vn_D1:pwr" -0.000000000000000e+00
"Vn_GND:v" 0.000000000000000e+00
"Vn_GND:i" 1.995727693676486e-07
"Vn_GND:pwr" 0.000000000000000e+00
"Vn_SD:v" 0.000000000000000e+00
"Vn_SD:i" 3.294900701489326e-09
"Vn_SD:pwr" 0.000000000000000e+00
"Vn_VDD:v" 1.200000000000000e+00
"Vn_VDD:i" 9.087357272255482e-07
"Vn_VDD:pwr" 1.090482872670658e-06
"Vn_Z:v" 0.000000000000000e+00
"Vn_Z:i" 4.763321416201389e-10
"Vn_Z:pwr" 0.000000000000000e+00
"n_Z" 1.199999495391128e+00
"n_D1" 1.547734984472717e-05
"n_SD" 1.200000000000000e+00
"Vn_D1:n" 1.112079782098372e-06
"Vn_D1:p" -1.112079782098372e-06
"Vn_GND:n" -1.995727693676486e-07
"Vn_GND:p" 1.995727693676486e-07
"Vn_SD:n" -3.294900701489326e-09
"Vn_SD:p" 3.294900701489326e-09
"Vn_VDD:n" -9.087357272255482e-07
"Vn_VDD:p" 9.087357272255482e-07
"Vn_Z:n" -4.763321416201389e-10
"Vn_Z:p" 4.763321416201389e-10
"time" 6.020032331600072e-09
"Vn_D1:v" 0.000000000000000e+00
"Vn_D1:i" -1.137002776544965e-06
"Vn_D1:pwr" -0.000000000000000e+00
"Vn_GND:v" 0.000000000000000e+00
"Vn_GND:i" 2.055280434981561e-07
"Vn_GND:pwr" 0.000000000000000e+00
"Vn_SD:v" 0.000000000000000e+00
"Vn_SD:i" 6.318983077198901e-09
"Vn_SD:pwr" 0.000000000000000e+00
"Vn_VDD:v" 1.200000000000000e+00
"Vn_VDD:i" 9.234970788139493e-07
"Vn_VDD:pwr" 1.108196494576739e-06
"Vn_Z:v" 0.000000000000000e+00
"Vn_Z:i" 1.658613940311072e-09
"Vn_Z:pwr" 0.000000000000000e+00
"n_Z" 1.199999498698764e+00
"n_D1" 3.120037190921192e-05
"n_SD" 1.200000000000000e+00
"Vn_D1:n" 1.137002776544965e-06
"Vn_D1:p" -1.137002776544965e-06
"Vn_GND:n" -2.055280434981561e-07
"Vn_GND:p" 2.055280434981561e-07
"Vn_SD:n" -6.318983077198901e-09
"Vn_SD:p" 6.318983077198901e-09
"Vn_VDD:n" -9.234970788139493e-07
"Vn_VDD:p" 9.234970788139493e-07
"Vn_Z:n" -1.658613940311072e-09
"Vn_Z:p" 1.658613940311072e-09
"time" 6.020065176400145e-09
"Vn_D1:v" 0.000000000000000e+00
"Vn_D1:i" -1.188162949712906e-06
"Vn_D1:pwr" -0.000000000000000e+00
"Vn_GND:v" 0.000000000000000e+00
"Vn_GND:i" 2.157243819172406e-07
"Vn_GND:pwr" 0.000000000000000e+00
"Vn_SD:v" 0.000000000000000e+00
"Vn_SD:i" 1.152413251645180e-08
"Vn_SD:pwr" 0.000000000000000e+00
"Vn_VDD:v" 1.200000000000000e+00
"Vn_VDD:i" 9.558230402861768e-07
"Vn_VDD:pwr" 1.146987648343412e-06
"Vn_Z:v" 0.000000000000000e+00
"Vn_Z:i" 5.091342328880990e-09
"Vn_Z:pwr" 0.000000000000000e+00
"n_Z" 1.199999519613949e+00
"n_D1" 6.264641603818140e-05
"n_SD" 1.200000000000000e+00
"Vn_D1:n" 1.188162949712906e-06
"Vn_D1:p" -1.188162949712906e-06
"Vn_GND:n" -2.157243819172406e-07
"Vn_GND:p" 2.157243819172406e-07
"Vn_SD:n" -1.152413251645180e-08
"Vn_SD:p" 1.152413251645180e-08
"Vn_VDD:n" -9.558230402861768e-07
"Vn_VDD:p" 9.558230402861768e-07
"Vn_Z:n" -5.091342328880990e-09
"Vn_Z:p" 5.091342328880990e-09
"time" 6.020130866000290e-09
"Vn_D1:v" 0.000000000000000e+00
"Vn_D1:i" -1.265528363784443e-06
"Vn_D1:pwr" -0.000000000000000e+00
"Vn_GND:v" 0.000000000000000e+00
"Vn_GND:i" 2.307319254661547e-07
"Vn_GND:pwr" 0.000000000000000e+00
"Vn_SD:v" 0.000000000000000e+00
"Vn_SD:i" 1.931804096496077e-08
"Vn_SD:pwr" 0.000000000000000e+00