HEADER
"PSFversion" "1.00"
"simulator" "spectre"
"version" "10.1.1.164.isr11"
"date" "3:01:57 PM, Fri Oct 17, 2014"
"design" "* Spectre Timing Acquisition"
"analysis type" "tran"
"analysis name" "transient1-022_transient1"
"analysis description" "Transient Analysis `transient1-022_transient1': time = (0 s -> 39 ns)"
"xVecSorted" "ascending"
"tolerance.relative" 0.00100000
"start" 0.00000
"outputstart" 0.00000
"stop" 3.90000e-08
"step" 3.90000e-11
"maxstep" 7.80000e-10
"ic" "all"
"useprevic" "no"
"skipdc" "no"
"reltol" 0.00100000
"abstol(V)" 1.00000e-06
"abstol(I)" 1.00000e-12
"temp" 25.0000
"tnom" 27.0000
"tempeffects" "all"
"errpreset" "moderate"
"method" "traponly"
"lteratio" 3.50000
"relref" "sigglobal"
"cmin" 0.00000
"gmin" 1.00000e-12
TYPE
"sweep" FLOAT DOUBLE PROP(
"key" "sweep"
)
"Tau" FLOAT DOUBLE PROP(
"units" "N*m"
"key" "node"
"tolerance" 1.00000e-06
)
"Alpha" FLOAT DOUBLE PROP(
"units" "rads/s^2"
"key" "node"
"tolerance" 1.00000e-06
)
"Omega" FLOAT DOUBLE PROP(
"units" "rads/s"
"key" "node"
"tolerance" 1.00000e-06
)
"Theta" FLOAT DOUBLE PROP(
"units" "rads"
"key" "node"
"tolerance" 1.00000e-06
)
"F" FLOAT DOUBLE PROP(
"units" "N"
"key" "node"
"tolerance" 1.00000e-06
)
"Imp" FLOAT DOUBLE PROP(
"units" "m/s^3"
"key" "node"
"tolerance" 1.00000e-06
)
"Acc" FLOAT DOUBLE PROP(
"units" "m/s^2"
"key" "node"
"tolerance" 1.00000e-06
)
"Vel" FLOAT DOUBLE PROP(
"units" "m/s"
"key" "node"
"tolerance" 1.00000e-06
)
"Pos" FLOAT DOUBLE PROP(
"units" "m"
"key" "node"
"tolerance" 1.00000e-06
)
"Phi" FLOAT DOUBLE PROP(
"units" "Wb"
"key" "node"
"tolerance" 1.00000e-09
)
"Q" FLOAT DOUBLE PROP(
"units" "coul"
"key" "node"
"tolerance" 1.00000e-14
)
"V" FLOAT DOUBLE PROP(
"units" "V"
"key" "node"
"tolerance" 1.00000e-06
)
"I" FLOAT DOUBLE PROP(
"units" "A"
"key" "branch"
"tolerance" 1.00000e-12
)
"MMF" FLOAT DOUBLE PROP(
"units" "A*turn"
"key" "node"
"tolerance" 1.00000e-12
)
"Wb" FLOAT DOUBLE PROP(
"units" "Wb"
"key" "node"
"tolerance" 1.00000e-09
)
"Temp" FLOAT DOUBLE PROP(
"units" "C"
"key" "node"
"tolerance" 0.000100000
)
"Pwr" FLOAT DOUBLE PROP(
"units" "W"
"key" "node"
"tolerance" 1.00000e-09
)
"U" FLOAT DOUBLE PROP(
"units" ""
"key" "node"
"tolerance" 1.00000e-06
)
"V/Sec" FLOAT DOUBLE PROP(
"units" "V/s"
"key" "node"
"tolerance" 0.000100000
)
"I/Sec" FLOAT DOUBLE PROP(
"units" "A/s"
"key" "node"
"tolerance" 1.00000e-06
)
"1/Sec" FLOAT DOUBLE PROP(
"units" "1/s"
"key" "node"
"tolerance" 0.000100000
)
"HOD" FLOAT DOUBLE PROP(
"units" ""
"key" "node"
"tolerance" 0.0100000
)
"A" FLOAT DOUBLE PROP(
"key" "inst"
)
"W" FLOAT DOUBLE PROP(
"key" "inst"
)
SWEEP
"time" "sweep" PROP(
"sweep_direction" 0
"units" "s"
"plot" 0
"grid" 1
)
TRACE
"Vn_D1:v" "V" PROP(
"units" "V"
)
"Vn_D1:i" "A" PROP(
"units" "A"
)
"Vn_D1:pwr" "W" PROP(
"units" "W"
)
"Vn_GND:v" "V" PROP(
"units" "V"
)
"Vn_GND:i" "A" PROP(
"units" "A"
)
"Vn_GND:pwr" "W" PROP(
"units" "W"
)
"Vn_SD:v" "V" PROP(
"units" "V"
)
"Vn_SD:i" "A" PROP(
"units" "A"
)
"Vn_SD:pwr" "W" PROP(
"units" "W"
)
"Vn_VDD:v" "V" PROP(
"units" "V"
)
"Vn_VDD:i" "A" PROP(
"units" "A"
)
"Vn_VDD:pwr" "W" PROP(
"units" "W"
)
"Vn_Z:v" "V" PROP(
"units" "V"
)
"Vn_Z:i" "A" PROP(
"units" "A"
)
"Vn_Z:pwr" "W" PROP(
"units" "W"
)
"n_Z" "V"
"n_D1" "V"
"n_SD" "V"
"Vn_D1:n" "I"
"Vn_D1:p" "I"
"Vn_GND:n" "I"
"Vn_GND:p" "I"
"Vn_SD:n" "I"
"Vn_SD:p" "I"
"Vn_VDD:n" "I"
"Vn_VDD:p" "I"
"Vn_Z:n" "I"
"Vn_Z:p" "I"
VALUE
"time" 0.000000000000000e+00
"Vn_D1:v" 0.000000000000000e+00
"Vn_D1:i" 7.517119452868393e-14
"Vn_D1:pwr" 0.000000000000000e+00
"Vn_GND:v" 0.000000000000000e+00
"Vn_GND:i" 2.548493107913229e-10
"Vn_GND:pwr" 0.000000000000000e+00
"Vn_SD:v" 0.000000000000000e+00
"Vn_SD:i" -5.105704018311266e-13
"Vn_SD:pwr" -0.000000000000000e+00
"Vn_VDD:v" 1.200000000000000e+00
"Vn_VDD:i" -2.544688430803661e-10
"Vn_VDD:pwr" -3.053626116964392e-10
"Vn_Z:v" 0.000000000000000e+00
"Vn_Z:i" 0.000000000000000e+00
"Vn_Z:pwr" 0.000000000000000e+00
"n_Z" 1.199999494927445e+00
"n_D1" 0.000000000000000e+00
"n_SD" 1.200000000000000e+00
"Vn_D1:n" -7.517119452868393e-14
"Vn_D1:p" 7.517119452868393e-14
"Vn_GND:n" -2.548493107913229e-10
"Vn_GND:p" 2.548493107913229e-10
"Vn_SD:n" 5.105704018311266e-13
"Vn_SD:p" -5.105704018311266e-13
"Vn_VDD:n" 2.544688430803661e-10
"Vn_VDD:p" -2.544688430803661e-10
"Vn_Z:n" 0.000000000000000e+00
"Vn_Z:p" 0.000000000000000e+00
"time" 3.900000000000000e-11
"Vn_D1:v" 0.000000000000000e+00
"Vn_D1:i" 7.486989555454809e-14
"Vn_D1:pwr" 0.000000000000000e+00
"Vn_GND:v" 0.000000000000000e+00
"Vn_GND:i" 2.548643843513796e-10
"Vn_GND:pwr" 0.000000000000000e+00
"Vn_SD:v" 0.000000000000000e+00
"Vn_SD:i" -5.109476833668201e-13
"Vn_SD:pwr" -0.000000000000000e+00
"Vn_VDD:v" 1.200000000000000e+00
"Vn_VDD:i" -2.544780290242461e-10
"Vn_VDD:pwr" -3.053736348290952e-10
"Vn_Z:v" 0.000000000000000e+00
"Vn_Z:i" -5.209034982131225e-15
"Vn_Z:pwr" -0.000000000000000e+00
"n_Z" 1.199999494891167e+00
"n_D1" 0.000000000000000e+00
"n_SD" 1.200000000000000e+00
"Vn_D1:n" -7.486989555454809e-14
"Vn_D1:p" 7.486989555454809e-14
"Vn_GND:n" -2.548643843513796e-10
"Vn_GND:p" 2.548643843513796e-10
"Vn_SD:n" 5.109476833668201e-13
"Vn_SD:p" -5.109476833668201e-13
"Vn_VDD:n" 2.544780290242461e-10
"Vn_VDD:p" -2.544780290242461e-10
"Vn_Z:n" 5.209034982131225e-15
"Vn_Z:p" -5.209034982131225e-15
"time" 1.170000000000000e-10
"Vn_D1:v" 0.000000000000000e+00
"Vn_D1:i" 7.504693835531039e-14
"Vn_D1:pwr" 0.000000000000000e+00
"Vn_GND:v" 0.000000000000000e+00
"Vn_GND:i" 2.548656871631506e-10
"Vn_GND:pwr" 0.000000000000000e+00
"Vn_SD:v" 0.000000000000000e+00
"Vn_SD:i" -5.107129564132554e-13
"Vn_SD:pwr" -0.000000000000000e+00
"Vn_VDD:v" 1.200000000000000e+00
"Vn_VDD:i" -2.544831908313225e-10
"Vn_VDD:pwr" -3.053798289975870e-10
"Vn_Z:v" 0.000000000000000e+00
"Vn_Z:i" -1.761802570606750e-15
"Vn_Z:pwr" -0.000000000000000e+00
"n_Z" 1.199999494866628e+00
"n_D1" 0.000000000000000e+00
"n_SD" 1.200000000000000e+00
"Vn_D1:n" -7.504693835531039e-14
"Vn_D1:p" 7.504693835531039e-14
"Vn_GND:n" -2.548656871631506e-10
"Vn_GND:p" 2.548656871631506e-10
"Vn_SD:n" 5.107129564132554e-13
"Vn_SD:p" -5.107129564132554e-13
"Vn_VDD:n" 2.544831908313225e-10
"Vn_VDD:p" -2.544831908313225e-10
"Vn_Z:n" 1.761802570606750e-15
"Vn_Z:p" -1.761802570606750e-15
"time" 2.730000000000000e-10
"Vn_D1:v" 0.000000000000000e+00
"Vn_D1:i" 7.520911141166342e-14
"Vn_D1:pwr" 0.000000000000000e+00
"Vn_GND:v" 0.000000000000000e+00
"Vn_GND:i" 2.548665130387690e-10
"Vn_GND:pwr" 0.000000000000000e+00
"Vn_SD:v" 0.000000000000000e+00
"Vn_SD:i" -5.105266434468132e-13
"Vn_SD:pwr" -0.000000000000000e+00
"Vn_VDD:v" 1.200000000000000e+00
"Vn_VDD:i" -2.544866855156814e-10
"Vn_VDD:pwr" -3.053840226188176e-10
"Vn_Z:v" 0.000000000000000e+00
"Vn_Z:i" 5.602441391850718e-16
"Vn_Z:pwr" 0.000000000000000e+00
"n_Z" 1.199999494849892e+00
"n_D1" 0.000000000000000e+00
"n_SD" 1.200000000000000e+00
"Vn_D1:n" -7.520911141166342e-14
"Vn_D1:p" 7.520911141166342e-14
"Vn_GND:n" -2.548665130387690e-10
"Vn_GND:p" 2.548665130387690e-10
"Vn_SD:n" 5.105266434468132e-13
"Vn_SD:p" -5.105266434468132e-13
"Vn_VDD:n" 2.544866855156814e-10
"Vn_VDD:p" -2.544866855156814e-10
"Vn_Z:n" -5.602441391850718e-16
"Vn_Z:p" 5.602441391850718e-16
"time" 5.850000000000002e-10
"Vn_D1:v" 0.000000000000000e+00
"Vn_D1:i" 7.514988470511721e-14
"Vn_D1:pwr" 0.000000000000000e+00
"Vn_GND:v" 0.000000000000000e+00
"Vn_GND:i" 2.548661734402771e-10
"Vn_GND:pwr" 0.000000000000000e+00
"Vn_SD:v" 0.000000000000000e+00
"Vn_SD:i" -5.105951822807541e-13
"Vn_SD:pwr" -0.000000000000000e+00
"Vn_VDD:v" 1.200000000000000e+00
"Vn_VDD:i" -2.544853360325433e-10
"Vn_VDD:pwr" -3.053824032390519e-10
"Vn_Z:v" 0.000000000000000e+00
"Vn_Z:i" -3.283795349278627e-16
"Vn_Z:pwr" -0.000000000000000e+00
"n_Z" 1.199999494856351e+00
"n_D1" 0.000000000000000e+00
"n_SD" 1.200000000000000e+00
"Vn_D1:n" -7.514988470511721e-14
"Vn_D1:p" 7.514988470511721e-14
"Vn_GND:n" -2.548661734402771e-10
"Vn_GND:p" 2.548661734402771e-10
"Vn_SD:n" 5.105951822807541e-13
"Vn_SD:p" -5.105951822807541e-13
"Vn_VDD:n" 2.544853360325433e-10
"Vn_VDD:p" -2.544853360325433e-10
"Vn_Z:n" 3.283795349278627e-16
"Vn_Z:p" -3.283795349278627e-16
"time" 1.209000000000000e-09
"Vn_D1:v" 0.000000000000000e+00
"Vn_D1:i" 7.518726431726960e-14
"Vn_D1:pwr" 0.000000000000000e+00
"Vn_GND:v" 0.000000000000000e+00
"Vn_GND:i" 2.548663484039090e-10
"Vn_GND:pwr" 0.000000000000000e+00
"Vn_SD:v" 0.000000000000000e+00
"Vn_SD:i" -5.105515840513881e-13
"Vn_SD:pwr" -0.000000000000000e+00
"Vn_VDD:v" 1.200000000000000e+00
"Vn_VDD:i" -2.544861652573367e-10
"Vn_VDD:pwr" -3.053833983088040e-10
"Vn_Z:v" 0.000000000000000e+00
"Vn_Z:i" 2.564241874327519e-16
"Vn_Z:pwr" 0.000000000000000e+00
"n_Z" 1.199999494852342e+00
"n_D1" 0.000000000000000e+00
"n_SD" 1.200000000000000e+00
"Vn_D1:n" -7.518726431726960e-14
"Vn_D1:p" 7.518726431726960e-14
"Vn_GND:n" -2.548663484039090e-10
"Vn_GND:p" 2.548663484039090e-10
"Vn_SD:n" 5.105515840513881e-13
"Vn_SD:p" -5.105515840513881e-13
"Vn_VDD:n" 2.544861652573367e-10
"Vn_VDD:p" -2.544861652573367e-10
"Vn_Z:n" -2.564241874327519e-16
"Vn_Z:p" 2.564241874327519e-16
"time" 1.989000000000000e-09
"Vn_D1:v" 0.000000000000000e+00
"Vn_D1:i" 7.515868700777977e-14
"Vn_D1:pwr" 0.000000000000000e+00
"Vn_GND:v" 0.000000000000000e+00
"Vn_GND:i" 2.548661353172803e-10
"Vn_GND:pwr" 0.000000000000000e+00
"Vn_SD:v" 0.000000000000000e+00
"Vn_SD:i" -5.105851550840873e-13
"Vn_SD:pwr" -0.000000000000000e+00
"Vn_VDD:v" 1.200000000000000e+00
"Vn_VDD:i" -2.544854389129690e-10
"Vn_VDD:pwr" -3.053825266955628e-10
"Vn_Z:v" 0.000000000000000e+00
"Vn_Z:i" -2.064694638041126e-16
"Vn_Z:pwr" -0.000000000000000e+00
"n_Z" 1.199999494855821e+00
"n_D1" 0.000000000000000e+00
"n_SD" 1.200000000000000e+00
"Vn_D1:n" -7.515868700777977e-14
"Vn_D1:p" 7.515868700777977e-14
"Vn_GND:n" -2.548661353172803e-10
"Vn_GND:p" 2.548661353172803e-10
"Vn_SD:n" 5.105851550840873e-13
"Vn_SD:p" -5.105851550840873e-13
"Vn_VDD:n" 2.544854389129690e-10
"Vn_VDD:p" -2.544854389129690e-10
"Vn_Z:n" 2.064694638041126e-16
"Vn_Z:p" -2.064694638041126e-16
"time" 2.769000000000001e-09
"Vn_D1:v" 0.000000000000000e+00
"Vn_D1:i" 7.518116949838385e-14
"Vn_D1:pwr" 0.000000000000000e+00
"Vn_GND:v" 0.000000000000000e+00
"Vn_GND:i" 2.548662263369663e-10
"Vn_GND:pwr" 0.000000000000000e+00
"Vn_SD:v" 0.000000000000000e+00
"Vn_SD:i" -5.105585122863103e-13
"Vn_SD:pwr" -0.000000000000000e+00
"Vn_VDD:v" 1.200000000000000e+00
"Vn_VDD:i" -2.544859456364698e-10
"Vn_VDD:pwr" -3.053831347637638e-10
"Vn_Z:v" 0.000000000000000e+00
"Vn_Z:i" 1.710208758057382e-16
"Vn_Z:pwr" 0.000000000000000e+00
"n_Z" 1.199999494853353e+00
"n_D1" 0.000000000000000e+00
"n_SD" 1.200000000000000e+00
"Vn_D1:n" -7.518116949838385e-14
"Vn_D1:p" 7.518116949838385e-14
"Vn_GND:n" -2.548662263369663e-10
"Vn_GND:p" 2.548662263369663e-10
"Vn_SD:n" 5.105585122863103e-13
"Vn_SD:p" -5.105585122863103e-13
"Vn_VDD:n" 2.544859456364698e-10
"Vn_VDD:p" -2.544859456364698e-10
"Vn_Z:n" -1.710208758057382e-16
"Vn_Z:p" 1.710208758057382e-16
"time" 3.000000000000000e-09
"Vn_D1:v" 0.000000000000000e+00
"Vn_D1:i" 7.516754516819916e-14
"Vn_D1:pwr" 0.000000000000000e+00
"Vn_GND:v" 0.000000000000000e+00
"Vn_GND:i" 2.548661211176702e-10
"Vn_GND:pwr" 0.000000000000000e+00
"Vn_SD:v" 0.000000000000000e+00
"Vn_SD:i" -5.105751071649428e-13
"Vn_SD:pwr" -0.000000000000000e+00
"Vn_VDD:v" 1.200000000000000e+00
"Vn_VDD:i" -2.544855716448559e-10
"Vn_VDD:pwr" -3.053826859738271e-10
"Vn_Z:v" 0.000000000000000e+00
"Vn_Z:i" -8.298438509657296e-17
"Vn_Z:pwr" -0.000000000000000e+00
"n_Z" 1.199999494855168e+00
"n_D1" 0.000000000000000e+00
"n_SD" 1.200000000000000e+00
"Vn_D1:n" -7.516754516819916e-14
"Vn_D1:p" 7.516754516819916e-14
"Vn_GND:n" -2.548661211176702e-10
"Vn_GND:p" 2.548661211176702e-10
"Vn_SD:n" 5.105751071649428e-13
"Vn_SD:p" -5.105751071649428e-13
"Vn_VDD:n" 2.544855716448559e-10
"Vn_VDD:p" -2.544855716448559e-10
"Vn_Z:n" 8.298438509657296e-17
"Vn_Z:p" -8.298438509657296e-17
"time" 3.010000000000000e-09
"Vn_D1:v" 0.000000000000000e+00
"Vn_D1:i" 7.516720956770453e-14
"Vn_D1:pwr" 0.000000000000000e+00
"Vn_GND:v" 0.000000000000000e+00
"Vn_GND:i" 2.548661279228186e-10
"Vn_GND:pwr" 0.000000000000000e+00
"Vn_SD:v" 0.000000000000000e+00
"Vn_SD:i" -5.105747675947577e-13
"Vn_SD:pwr" -0.000000000000000e+00
"Vn_VDD:v" 1.200000000000000e+00
"Vn_VDD:i" -2.544855904588006e-10
"Vn_VDD:pwr" -3.053827085505606e-10
"Vn_Z:v" 0.000000000000000e+00
"Vn_Z:i" -6.140177907489929e-17
"Vn_Z:pwr" -0.000000000000000e+00
"n_Z" 1.199999494855059e+00
"n_D1" 0.000000000000000e+00
"n_SD" 1.200000000000000e+00
"Vn_D1:n" -7.516720956770453e-14
"Vn_D1:p" 7.516720956770453e-14
"Vn_GND:n" -2.548661279228186e-10
"Vn_GND:p" 2.548661279228186e-10
"Vn_SD:n" 5.105747675947577e-13
"Vn_SD:p" -5.105747675947577e-13
"Vn_VDD:n" 2.544855904588006e-10
"Vn_VDD:p" -2.544855904588006e-10
"Vn_Z:n" 6.140177907489929e-17
"Vn_Z:p" -6.140177907489929e-17
"time" 3.030000000000000e-09
"Vn_D1:v" 0.000000000000000e+00
"Vn_D1:i" 7.516832591331150e-14
"Vn_D1:pwr" 0.000000000000000e+00
"Vn_GND:v" 0.000000000000000e+00
"Vn_GND:i" 2.548661346759459e-10
"Vn_GND:pwr" 0.000000000000000e+00
"Vn_SD:v" 0.000000000000000e+00
"Vn_SD:i" -5.105736009944069e-13
"Vn_SD:pwr" -0.000000000000000e+00
"Vn_VDD:v" 1.200000000000000e+00
"Vn_VDD:i" -2.544856204347100e-10
"Vn_VDD:pwr" -3.053827445216520e-10
"Vn_Z:v" 0.000000000000000e+00
"Vn_Z:i" -4.043968345666202e-17
"Vn_Z:pwr" -0.000000000000000e+00
"n_Z" 1.199999494854914e+00
"n_D1" 0.000000000000000e+00
"n_SD" 1.200000000000000e+00
"Vn_D1:n" -7.516832591331150e-14
"Vn_D1:p" 7.516832591331150e-14
"Vn_GND:n" -2.548661346759459e-10
"Vn_GND:p" 2.548661346759459e-10
"Vn_SD:n" 5.105736009944069e-13
"Vn_SD:p" -5.105736009944069e-13
"Vn_VDD:n" 2.544856204347100e-10
"Vn_VDD:p" -2.544856204347100e-10
"Vn_Z:n" 4.043968345666202e-17
"Vn_Z:p" -4.043968345666202e-17
"time" 3.070000000000001e-09
"Vn_D1:v" 0.000000000000000e+00
"Vn_D1:i" 7.517020085767727e-14
"Vn_D1:pwr" 0.000000000000000e+00
"Vn_GND:v" 0.000000000000000e+00
"Vn_GND:i" 2.548661417371971e-10
"Vn_GND:pwr" 0.000000000000000e+00
"Vn_SD:v" 0.000000000000000e+00
"Vn_SD:i" -5.105717419376501e-13
"Vn_SD:pwr" -0.000000000000000e+00
"Vn_VDD:v" 1.200000000000000e+00
"Vn_VDD:i" -2.544856635908124e-10
"Vn_VDD:pwr" -3.053827963089749e-10
"Vn_Z:v" 0.000000000000000e+00
"Vn_Z:i" -1.458542929116702e-17
"Vn_Z:pwr" -0.000000000000000e+00
"n_Z" 1.199999494854718e+00
"n_D1" 0.000000000000000e+00
"n_SD" 1.200000000000000e+00
"Vn_D1:n" -7.517020085767727e-14
"Vn_D1:p" 7.517020085767727e-14
"Vn_GND:n" -2.548661417371971e-10
"Vn_GND:p" 2.548661417371971e-10
"Vn_SD:n" 5.105717419376501e-13
"Vn_SD:p" -5.105717419376501e-13
"Vn_VDD:n" 2.544856635908124e-10
"Vn_VDD:p" -2.544856635908124e-10
"Vn_Z:n" 1.458542929116702e-17
"Vn_Z:p" -1.458542929116702e-17
"time" 3.150000000000003e-09
"Vn_D1:v" 0.000000000000000e+00
"Vn_D1:i" 7.517144373806294e-14
"Vn_D1:pwr" 0.000000000000000e+00
"Vn_GND:v" 0.000000000000000e+00
"Vn_GND:i" 2.548661439399541e-10
"Vn_GND:pwr" 0.000000000000000e+00
"Vn_SD:v" 0.000000000000000e+00
"Vn_SD:i" -5.105697767559902e-13
"Vn_SD:pwr" -0.000000000000000e+00
"Vn_VDD:v" 1.200000000000000e+00
"Vn_VDD:i" -2.544856729285163e-10
"Vn_VDD:pwr" -3.053828075142196e-10
"Vn_Z:v" 0.000000000000000e+00
"Vn_Z:i" 4.054048379214954e-18
"Vn_Z:pwr" 0.000000000000000e+00
"n_Z" 1.199999494854642e+00
"n_D1" 0.000000000000000e+00
"n_SD" 1.200000000000000e+00
"Vn_D1:n" -7.517144373806294e-14
"Vn_D1:p" 7.517144373806294e-14
"Vn_GND:n" -2.548661439399541e-10
"Vn_GND:p" 2.548661439399541e-10
"Vn_SD:n" 5.105697767559902e-13
"Vn_SD:p" -5.105697767559902e-13
"Vn_VDD:n" 2.544856729285163e-10
"Vn_VDD:p" -2.544856729285163e-10
"Vn_Z:n" -4.054048379214954e-18
"Vn_Z:p" 4.054048379214954e-18
"time" 3.310000000000005e-09
"Vn_D1:v" 0.000000000000000e+00
"Vn_D1:i" 7.517105828414179e-14
"Vn_D1:pwr" 0.000000000000000e+00
"Vn_GND:v" 0.000000000000000e+00
"Vn_GND:i" 2.548661314964275e-10
"Vn_GND:pwr" 0.000000000000000e+00
"Vn_SD:v" 0.000000000000000e+00
"Vn_SD:i" -5.105709089630624e-13
"Vn_SD:pwr" -0.000000000000000e+00
"Vn_VDD:v" 1.200000000000000e+00
"Vn_VDD:i" -2.544856701926818e-10
"Vn_VDD:pwr" -3.053828042312182e-10
"Vn_Z:v" 0.000000000000000e+00
"Vn_Z:i" -1.151191716594942e-18
"Vn_Z:pwr" -0.000000000000000e+00
"n_Z" 1.199999494854684e+00
"n_D1" 0.000000000000000e+00
"n_SD" 1.200000000000000e+00
"Vn_D1:n" -7.517105828414179e-14
"Vn_D1:p" 7.517105828414179e-14
"Vn_GND:n" -2.548661314964275e-10
"Vn_GND:p" 2.548661314964275e-10
"Vn_SD:n" 5.105709089630624e-13
"Vn_SD:p" -5.105709089630624e-13
"Vn_VDD:n" 2.544856701926818e-10
"Vn_VDD:p" -2.544856701926818e-10
"Vn_Z:n" 1.151191716594942e-18
"Vn_Z:p" -1.151191716594942e-18
"time" 3.630000000000011e-09
"Vn_D1:v" 0.000000000000000e+00
"Vn_D1:i" 7.517150892124698e-14
"Vn_D1:pwr" 0.000000000000000e+00
"Vn_GND:v" 0.000000000000000e+00
"Vn_GND:i" 2.548661163956389e-10
"Vn_GND:pwr" 0.000000000000000e+00
"Vn_SD:v" 0.000000000000000e+00
"Vn_SD:i" -5.105696722537260e-13
"Vn_SD:pwr" -0.000000000000000e+00
"Vn_VDD:v" 1.200000000000000e+00
"Vn_VDD:i" -2.544856462766736e-10
"Vn_VDD:pwr" -3.053827755320083e-10
"Vn_Z:v" 0.000000000000000e+00
"Vn_Z:i" 3.787906037955905e-18
"Vn_Z:pwr" 0.000000000000000e+00
"n_Z" 1.199999494854759e+00
"n_D1" 0.000000000000000e+00
"n_SD" 1.200000000000000e+00
"Vn_D1:n" -7.517150892124698e-14
"Vn_D1:p" 7.517150892124698e-14
"Vn_GND:n" -2.548661163956389e-10
"Vn_GND:p" 2.548661163956389e-10
"Vn_SD:n" 5.105696722537260e-13
"Vn_SD:p" -5.105696722537260e-13
"Vn_VDD:n" 2.544856462766736e-10
"Vn_VDD:p" -2.544856462766736e-10
"Vn_Z:n" -3.787906037955905e-18
"Vn_Z:p" 3.787906037955905e-18
"time" 4.270000000000022e-09
"Vn_D1:v" 0.000000000000000e+00
"Vn_D1:i" 7.517108580653137e-14
"Vn_D1:pwr" 0.000000000000000e+00
"Vn_GND:v" 0.000000000000000e+00
"Vn_GND:i" 2.548660757108804e-10
"Vn_GND:pwr" 0.000000000000000e+00
"Vn_SD:v" 0.000000000000000e+00
"Vn_SD:i" -5.105708939901840e-13
"Vn_SD:pwr" -0.000000000000000e+00
"Vn_VDD:v" 1.200000000000000e+00
"Vn_VDD:i" -2.544856158593066e-10
"Vn_VDD:pwr" -3.053827390311679e-10
"Vn_Z:v" 0.000000000000000e+00
"Vn_Z:i" -8.463399650425014e-19
"Vn_Z:pwr" -0.000000000000000e+00
"n_Z" 1.199999494854927e+00
"n_D1" 0.000000000000000e+00
"n_SD" 1.200000000000000e+00
"Vn_D1:n" -7.517108580653137e-14
"Vn_D1:p" 7.517108580653137e-14
"Vn_GND:n" -2.548660757108804e-10
"Vn_GND:p" 2.548660757108804e-10
"Vn_SD:n" 5.105708939901840e-13
"Vn_SD:p" -5.105708939901840e-13
"Vn_VDD:n" 2.544856158593066e-10
"Vn_VDD:p" -2.544856158593066e-10
"Vn_Z:n" 8.463399650425014e-19
"Vn_Z:p" -8.463399650425014e-19
"time" 5.050000000000022e-09
"Vn_D1:v" 0.000000000000000e+00
"Vn_D1:i" 7.517148639573542e-14
"Vn_D1:pwr" 0.000000000000000e+00
"Vn_GND:v" 0.000000000000000e+00
"Vn_GND:i" 2.548660337397484e-10
"Vn_GND:pwr" 0.000000000000000e+00
"Vn_SD:v" 0.000000000000000e+00
"Vn_SD:i" -5.105696901067020e-13
"Vn_SD:pwr" -0.000000000000000e+00
"Vn_VDD:v" 1.200000000000000e+00
"Vn_VDD:i" -2.544855639887266e-10
"Vn_VDD:pwr" -3.053826767864719e-10
"Vn_Z:v" 0.000000000000000e+00
"Vn_Z:i" 3.383763177675539e-18
"Vn_Z:pwr" 0.000000000000000e+00
"n_Z" 1.199999494855104e+00
"n_D1" 0.000000000000000e+00
"n_SD" 1.200000000000000e+00
"Vn_D1:n" -7.517148639573542e-14
"Vn_D1:p" 7.517148639573542e-14
"Vn_GND:n" -2.548660337397484e-10
"Vn_GND:p" 2.548660337397484e-10
"Vn_SD:n" 5.105696901067020e-13
"Vn_SD:p" -5.105696901067020e-13
"Vn_VDD:n" 2.544855639887266e-10
"Vn_VDD:p" -2.544855639887266e-10
"Vn_Z:n" -3.383763177675539e-18
"Vn_Z:p" 3.383763177675539e-18
"time" 5.830000000000022e-09
"Vn_D1:v" 0.000000000000000e+00
"Vn_D1:i" 7.517120929546506e-14
"Vn_D1:pwr" 0.000000000000000e+00
"Vn_GND:v" 0.000000000000000e+00
"Vn_GND:i" 2.548659860710838e-10
"Vn_GND:pwr" 0.000000000000000e+00
"Vn_SD:v" 0.000000000000000e+00
"Vn_SD:i" -5.105707482226846e-13
"Vn_SD:pwr" -0.000000000000000e+00
"Vn_VDD:v" 1.200000000000000e+00
"Vn_VDD:i" -2.544855209541247e-10
"Vn_VDD:pwr" -3.053826251449496e-10
"Vn_Z:v" 0.000000000000000e+00
"Vn_Z:i" -2.117340727670865e-19
"Vn_Z:pwr" -0.000000000000000e+00
"n_Z" 1.199999494855325e+00
"n_D1" 0.000000000000000e+00
"n_SD" 1.200000000000000e+00
"Vn_D1:n" -7.517120929546506e-14
"Vn_D1:p" 7.517120929546506e-14
"Vn_GND:n" -2.548659860710838e-10
"Vn_GND:p" 2.548659860710838e-10
"Vn_SD:n" 5.105707482226846e-13
"Vn_SD:p" -5.105707482226846e-13
"Vn_VDD:n" 2.544855209541247e-10
"Vn_VDD:p" -2.544855209541247e-10
"Vn_Z:n" 2.117340727670865e-19
"Vn_Z:p" -2.117340727670865e-19
"time" 6.010000000000000e-09
"Vn_D1:v" 0.000000000000000e+00
"Vn_D1:i" 7.517131386865851e-14
"Vn_D1:pwr" 0.000000000000000e+00
"Vn_GND:v" 0.000000000000000e+00
"Vn_GND:i" 2.548659771994489e-10
"Vn_GND:pwr" 0.000000000000000e+00
"Vn_SD:v" 0.000000000000000e+00
"Vn_SD:i" -5.105698777346567e-13
"Vn_SD:pwr" -0.000000000000000e+00
"Vn_VDD:v" 1.200000000000000e+00
"Vn_VDD:i" -2.544855073115810e-10
"Vn_VDD:pwr" -3.053826087738972e-10
"Vn_Z:v" 0.000000000000000e+00
"Vn_Z:i" 2.087737795653461e-18
"Vn_Z:pwr" 0.000000000000000e+00
"n_Z" 1.199999494855355e+00
"n_D1" 0.000000000000000e+00
"n_SD" 1.200000000000000e+00
"Vn_D1:n" -7.517131386865851e-14
"Vn_D1:p" 7.517131386865851e-14
"Vn_GND:n" -2.548659771994489e-10
"Vn_GND:p" 2.548659771994489e-10
"Vn_SD:n" 5.105698777346567e-13
"Vn_SD:p" -5.105698777346567e-13
"Vn_VDD:n" 2.544855073115810e-10
"Vn_VDD:p" -2.544855073115810e-10
"Vn_Z:n" -2.087737795653461e-18
"Vn_Z:p" 2.087737795653461e-18
"time" 6.019999550200000e-09
"Vn_D1:v" 0.000000000000000e+00
"Vn_D1:i" 7.517130241748139e-14
"Vn_D1:pwr" 0.000000000000000e+00
"Vn_GND:v" 0.000000000000000e+00
"Vn_GND:i" 2.548659760265634e-10
"Vn_GND:pwr" 0.000000000000000e+00
"Vn_SD:v" 0.000000000000000e+00
"Vn_SD:i" -5.105703358434837e-13
"Vn_SD:pwr" -0.000000000000000e+00
"Vn_VDD:v" 1.200000000000000e+00
"Vn_VDD:i" -2.544855105907958e-10
"Vn_VDD:pwr" -3.053826127089550e-10
"Vn_Z:v" 0.000000000000000e+00
"Vn_Z:i" 1.999668396925672e-18
"Vn_Z:pwr" 0.000000000000000e+00
"n_Z" 1.199999494855358e+00
"n_D1" 0.000000000000000e+00
"n_SD" 1.200000000000000e+00
"Vn_D1:n" -7.517130241748139e-14
"Vn_D1:p" 7.517130241748139e-14
"Vn_GND:n" -2.548659760265634e-10
"Vn_GND:p" 2.548659760265634e-10
"Vn_SD:n" 5.105703358434837e-13
"Vn_SD:p" -5.105703358434837e-13
"Vn_VDD:n" 2.544855105907958e-10
"Vn_VDD:p" -2.544855105907958e-10
"Vn_Z:n" -1.999668396925672e-18
"Vn_Z:p" 1.999668396925672e-18
"time" 6.020000000000000e-09
"Vn_D1:v" 0.000000000000000e+00
"Vn_D1:i" -6.134735487276529e-07
"Vn_D1:pwr" -0.000000000000000e+00
"Vn_GND:v" 0.000000000000000e+00
"Vn_GND:i" 1.103289202832779e-07
"Vn_GND:pwr" 0.000000000000000e+00
"Vn_SD:v" 0.000000000000000e+00
"Vn_SD:i" 5.431363566554798e-11
"Vn_SD:pwr" 0.000000000000000e+00
"Vn_VDD:v" 1.200000000000000e+00
"Vn_VDD:i" 5.030897684083400e-07
"Vn_VDD:pwr" 6.037077220900080e-07
"Vn_Z:v" 0.000000000000000e+00
"Vn_Z:i" 4.900413977475091e-13
"Vn_Z:pwr" 0.000000000000000e+00
"n_Z" 1.199999494855397e+00
"n_D1" 2.456136039079392e-07
"n_SD" 1.200000000000000e+00
"Vn_D1:n" 6.134735487276529e-07
"Vn_D1:p" -6.134735487276529e-07
"Vn_GND:n" -1.103289202832779e-07
"Vn_GND:p" 1.103289202832779e-07
"Vn_SD:n" -5.431363566554798e-11
"Vn_SD:p" 5.431363566554798e-11
"Vn_VDD:n" -5.030897684083400e-07
"Vn_VDD:p" 5.030897684083400e-07
"Vn_Z:n" -4.900413977475091e-13
"Vn_Z:p" 4.900413977475091e-13
"time" 6.020000899600001e-09
"Vn_D1:v" 0.000000000000000e+00
"Vn_D1:i" -6.147226907919451e-07
"Vn_D1:pwr" -0.000000000000000e+00
"Vn_GND:v" 0.000000000000000e+00
"Vn_GND:i" 1.105449035089948e-07
"Vn_GND:pwr" 0.000000000000000e+00
"Vn_SD:v" 0.000000000000000e+00
"Vn_SD:i" 1.633536746010960e-10
"Vn_SD:pwr" 0.000000000000000e+00
"Vn_VDD:v" 1.200000000000000e+00
"Vn_VDD:i" 5.040109980542665e-07
"Vn_VDD:pwr" 6.048131976651197e-07
"Vn_Z:v" 0.000000000000000e+00
"Vn_Z:i" 3.379089184144210e-12
"Vn_Z:pwr" 0.000000000000000e+00
"n_Z" 1.199999494855940e+00
"n_D1" 7.368408117238176e-07
"n_SD" 1.200000000000000e+00
"Vn_D1:n" 6.147226907919451e-07
"Vn_D1:p" -6.147226907919451e-07
"Vn_GND:n" -1.105449035089948e-07
"Vn_GND:p" 1.105449035089948e-07
"Vn_SD:n" -1.633536746010960e-10
"Vn_SD:p" 1.633536746010960e-10
"Vn_VDD:n" -5.040109980542665e-07
"Vn_VDD:p" 5.040109980542665e-07
"Vn_Z:n" -3.379089184144210e-12
"Vn_Z:p" 3.379089184144210e-12
"time" 6.020002698800002e-09
"Vn_D1:v" 0.000000000000000e+00
"Vn_D1:i" -6.172051182415415e-07
"Vn_D1:pwr" -0.000000000000000e+00
"Vn_GND:v" 0.000000000000000e+00
"Vn_GND:i" 1.109743190011680e-07
"Vn_GND:pwr" 0.000000000000000e+00
"Vn_SD:v" 0.000000000000000e+00
"Vn_SD:i" 3.802198700868439e-10
"Vn_SD:pwr" 0.000000000000000e+00
"Vn_VDD:v" 1.200000000000000e+00
"Vn_VDD:i" 5.058376505617818e-07
"Vn_VDD:pwr" 6.070051806741381e-07
"Vn_Z:v" 0.000000000000000e+00
"Vn_Z:i" 1.287516415714701e-11
"Vn_Z:pwr" 0.000000000000000e+00
"n_Z" 1.199999494858552e+00
"n_D1" 1.719295227355574e-06
"n_SD" 1.200000000000000e+00
"Vn_D1:n" 6.172051182415415e-07
"Vn_D1:p" -6.172051182415415e-07
"Vn_GND:n" -1.109743190011680e-07
"Vn_GND:p" 1.109743190011680e-07
"Vn_SD:n" -3.802198700868439e-10
"Vn_SD:p" 3.802198700868439e-10
"Vn_VDD:n" -5.058376505617818e-07
"Vn_VDD:p" 5.058376505617818e-07
"Vn_Z:n" -1.287516415714701e-11
"Vn_Z:p" 1.287516415714701e-11
"time" 6.020006297200004e-09
"Vn_D1:v" 0.000000000000000e+00
"Vn_D1:i" -6.220761723974705e-07
"Vn_D1:pwr" -0.000000000000000e+00
"Vn_GND:v" 0.000000000000000e+00
"Vn_GND:i" 1.118179911929872e-07
"Vn_GND:pwr" 0.000000000000000e+00
"Vn_SD:v" 0.000000000000000e+00
"Vn_SD:i" 8.067339999739710e-10
"Vn_SD:pwr" 0.000000000000000e+00
"Vn_VDD:v" 1.200000000000000e+00
"Vn_VDD:i" 5.093983610309078e-07
"Vn_VDD:pwr" 6.112780332370894e-07
"Vn_Z:v" 0.000000000000000e+00
"Vn_Z:i" 5.302946695344779e-11
"Vn_Z:pwr" 0.000000000000000e+00
"n_Z" 1.199999494879726e+00
"n_D1" 3.684204058619088e-06
"n_SD" 1.200000000000000e+00
"Vn_D1:n" 6.220761723974705e-07
"Vn_D1:p" -6.220761723974705e-07
"Vn_GND:n" -1.118179911929872e-07
"Vn_GND:p" 1.118179911929872e-07
"Vn_SD:n" -8.067339999739710e-10
"Vn_SD:p" 8.067339999739710e-10
"Vn_VDD:n" -5.093983610309078e-07
"Vn_VDD:p" 5.093983610309078e-07
"Vn_Z:n" -5.302946695344779e-11
"Vn_Z:p" 5.302946695344779e-11
"time" 6.020013494000009e-09
"Vn_D1:v" 0.000000000000000e+00
"Vn_D1:i" -6.314573117051468e-07
"Vn_D1:pwr" -0.000000000000000e+00
"Vn_GND:v" 0.000000000000000e+00
"Vn_GND:i" 1.134460611031759e-07
"Vn_GND:pwr" 0.000000000000000e+00
"Vn_SD:v" 0.000000000000000e+00
"Vn_SD:i" 1.631496408580461e-09
"Vn_SD:pwr" 0.000000000000000e+00
"Vn_VDD:v" 1.200000000000000e+00
"Vn_VDD:i" 5.161721816467967e-07
"Vn_VDD:pwr" 6.194066179761560e-07
"Vn_Z:v" 0.000000000000000e+00
"Vn_Z:i" 2.075194294544946e-10
"Vn_Z:pwr" 0.000000000000000e+00
"n_Z" 1.199999495047147e+00
"n_D1" 7.614021721146115e-06
"n_SD" 1.200000000000000e+00
"Vn_D1:n" 6.314573117051468e-07
"Vn_D1:p" -6.314573117051468e-07
"Vn_GND:n" -1.134460611031759e-07
"Vn_GND:p" 1.134460611031759e-07
"Vn_SD:n" -1.631496408580461e-09
"Vn_SD:p" 1.631496408580461e-09
"Vn_VDD:n" -5.161721816467967e-07
"Vn_VDD:p" 5.161721816467967e-07
"Vn_Z:n" -2.075194294544946e-10
"Vn_Z:p" 2.075194294544946e-10
"time" 6.020027887600018e-09
"Vn_D1:v" 0.000000000000000e+00
"Vn_D1:i" -6.488790581776627e-07
"Vn_D1:pwr" -0.000000000000000e+00
"Vn_GND:v" 0.000000000000000e+00
"Vn_GND:i" 1.164763244253803e-07
"Vn_GND:pwr" 0.000000000000000e+00
"Vn_SD:v" 0.000000000000000e+00
"Vn_SD:i" 3.172957823845276e-09
"Vn_SD:pwr" 0.000000000000000e+00
"Vn_VDD:v" 1.200000000000000e+00
"Vn_VDD:i" 5.284851438313654e-07
"Vn_VDD:pwr" 6.341821725976384e-07
"Vn_Z:v" 0.000000000000000e+00
"Vn_Z:i" 7.445754002287538e-10
"Vn_Z:pwr" 0.000000000000000e+00
"n_Z" 1.199999496270725e+00
"n_D1" 1.547365704620017e-05
"n_SD" 1.200000000000000e+00
"Vn_D1:n" 6.488790581776627e-07
"Vn_D1:p" -6.488790581776627e-07
"Vn_GND:n" -1.164763244253803e-07
"Vn_GND:p" 1.164763244253803e-07
"Vn_SD:n" -3.172957823845276e-09
"Vn_SD:p" 3.172957823845276e-09
"Vn_VDD:n" -5.284851438313654e-07
"Vn_VDD:p" 5.284851438313654e-07
"Vn_Z:n" -7.445754002287538e-10
"Vn_Z:p" 7.445754002287538e-10
"time" 6.020056674800035e-09
"Vn_D1:v" 0.000000000000000e+00
"Vn_D1:i" -6.668232523085690e-07
"Vn_D1:pwr" -0.000000000000000e+00
"Vn_GND:v" 0.000000000000000e+00
"Vn_GND:i" 1.217739248002671e-07
"Vn_GND:pwr" 0.000000000000000e+00
"Vn_SD:v" 0.000000000000000e+00
"Vn_SD:i" 5.871938074450575e-09
"Vn_SD:pwr" 0.000000000000000e+00
"Vn_VDD:v" 1.200000000000000e+00
"Vn_VDD:i" 5.368066931616401e-07
"Vn_VDD:pwr" 6.441680317939680e-07
"Vn_Z:v" 0.000000000000000e+00
"Vn_Z:i" 2.370643071262056e-09
"Vn_Z:pwr" 0.000000000000000e+00
"n_Z" 1.199999504277727e+00
"n_D1" 3.119292769630828e-05
"n_SD" 1.200000000000000e+00
"Vn_D1:n" 6.668232523085690e-07
"Vn_D1:p" -6.668232523085690e-07
"Vn_GND:n" -1.217739248002671e-07
"Vn_GND:p" 1.217739248002671e-07
"Vn_SD:n" -5.871938074450575e-09
"Vn_SD:p" 5.871938074450575e-09
"Vn_VDD:n" -5.368066931616401e-07
"Vn_VDD:p" 5.368066931616401e-07
"Vn_Z:n" -2.370643071262056e-09
"Vn_Z:p" 2.370643071262056e-09
"time" 6.020114249200071e-09
"Vn_D1:v" 0.000000000000000e+00
"Vn_D1:i" -7.160308965104861e-07
"Vn_D1:pwr" -0.000000000000000e+00
"Vn_GND:v" 0.000000000000000e+00
"Vn_GND:i" 1.298523926596611e-07
"Vn_GND:pwr" 0.000000000000000e+00
"Vn_SD:v" 0.000000000000000e+00
"Vn_SD:i" 1.004814722451347e-08
"Vn_SD:pwr" 0.000000000000000e+00
"Vn_VDD:v" 1.200000000000000e+00
"Vn_VDD:i" 5.697713911686925e-07
"Vn_VDD:pwr" 6.837256694024309e-07
"Vn_Z:v" 0.000000000000000e+00
"Vn_Z:i" 6.358908802039161e-09
"Vn_Z:pwr" 0.000000000000000e+00
"n_Z" 1.199999549152611e+00
"n_D1" 6.263146899652450e-05
"n_SD" 1.200000000000000e+00
"Vn_D1:n" 7.160308965104861e-07
"Vn_D1:p" -7.160308965104861e-07
"Vn_GND:n" -1.298523926596611e-07
"Vn_GND:p" 1.298523926596611e-07
"Vn_SD:n" -1.004814722451347e-08
"Vn_SD:p" 1.004814722451347e-08
"Vn_VDD:n" -5.697713911686925e-07
"Vn_VDD:p" 5.697713911686925e-07
"Vn_Z:n" -6.358908802039161e-09
"Vn_Z:p" 6.358908802039161e-09
"time" 6.020229398000143e-09
"Vn_D1:v" 0.000000000000000e+00
"Vn_D1:i" -7.609126159007715e-07
"Vn_D1:pwr" -0.000000000000000e+00
"Vn_GND:v" 0.000000000000000e+00
"Vn_GND:i" 1.395920235096594e-07
"Vn_GND:pwr" 0.000000000000000e+00
"Vn_SD:v" 0.000000000000000e+00
"Vn_SD:i" 1.517850703946528e-08