HEADER
"PSFversion" "1.00"
"simulator" "spectre"
"version" "10.1.1.164.isr11"
"date" "3:01:57 PM, Fri Oct 17, 2014"
"design" "* Spectre Timing Acquisition"
"analysis type" "tran"
"analysis name" "transient1-001_transient1"
"analysis description" "Transient Analysis `transient1-001_transient1': time = (0 s -> 39 ns)"
"xVecSorted" "ascending"
"tolerance.relative" 0.00100000
"start" 0.00000
"outputstart" 0.00000
"stop" 3.90000e-08
"step" 3.90000e-11
"maxstep" 7.80000e-10
"ic" "all"
"useprevic" "no"
"skipdc" "no"
"reltol" 0.00100000
"abstol(V)" 1.00000e-06
"abstol(I)" 1.00000e-12
"temp" 25.0000
"tnom" 27.0000
"tempeffects" "all"
"errpreset" "moderate"
"method" "traponly"
"lteratio" 3.50000
"relref" "sigglobal"
"cmin" 0.00000
"gmin" 1.00000e-12
TYPE
"sweep" FLOAT DOUBLE PROP(
"key" "sweep"
)
"Tau" FLOAT DOUBLE PROP(
"units" "N*m"
"key" "node"
"tolerance" 1.00000e-06
)
"Alpha" FLOAT DOUBLE PROP(
"units" "rads/s^2"
"key" "node"
"tolerance" 1.00000e-06
)
"Omega" FLOAT DOUBLE PROP(
"units" "rads/s"
"key" "node"
"tolerance" 1.00000e-06
)
"Theta" FLOAT DOUBLE PROP(
"units" "rads"
"key" "node"
"tolerance" 1.00000e-06
)
"F" FLOAT DOUBLE PROP(
"units" "N"
"key" "node"
"tolerance" 1.00000e-06
)
"Imp" FLOAT DOUBLE PROP(
"units" "m/s^3"
"key" "node"
"tolerance" 1.00000e-06
)
"Acc" FLOAT DOUBLE PROP(
"units" "m/s^2"
"key" "node"
"tolerance" 1.00000e-06
)
"Vel" FLOAT DOUBLE PROP(
"units" "m/s"
"key" "node"
"tolerance" 1.00000e-06
)
"Pos" FLOAT DOUBLE PROP(
"units" "m"
"key" "node"
"tolerance" 1.00000e-06
)
"Phi" FLOAT DOUBLE PROP(
"units" "Wb"
"key" "node"
"tolerance" 1.00000e-09
)
"Q" FLOAT DOUBLE PROP(
"units" "coul"
"key" "node"
"tolerance" 1.00000e-14
)
"V" FLOAT DOUBLE PROP(
"units" "V"
"key" "node"
"tolerance" 1.00000e-06
)
"I" FLOAT DOUBLE PROP(
"units" "A"
"key" "branch"
"tolerance" 1.00000e-12
)
"MMF" FLOAT DOUBLE PROP(
"units" "A*turn"
"key" "node"
"tolerance" 1.00000e-12
)
"Wb" FLOAT DOUBLE PROP(
"units" "Wb"
"key" "node"
"tolerance" 1.00000e-09
)
"Temp" FLOAT DOUBLE PROP(
"units" "C"
"key" "node"
"tolerance" 0.000100000
)
"Pwr" FLOAT DOUBLE PROP(
"units" "W"
"key" "node"
"tolerance" 1.00000e-09
)
"U" FLOAT DOUBLE PROP(
"units" ""
"key" "node"
"tolerance" 1.00000e-06
)
"V/Sec" FLOAT DOUBLE PROP(
"units" "V/s"
"key" "node"
"tolerance" 0.000100000
)
"I/Sec" FLOAT DOUBLE PROP(
"units" "A/s"
"key" "node"
"tolerance" 1.00000e-06
)
"1/Sec" FLOAT DOUBLE PROP(
"units" "1/s"
"key" "node"
"tolerance" 0.000100000
)
"HOD" FLOAT DOUBLE PROP(
"units" ""
"key" "node"
"tolerance" 0.0100000
)
"A" FLOAT DOUBLE PROP(
"key" "inst"
)
"W" FLOAT DOUBLE PROP(
"key" "inst"
)
SWEEP
"time" "sweep" PROP(
"sweep_direction" 0
"units" "s"
"plot" 0
"grid" 1
)
TRACE
"Vn_D1:v" "V" PROP(
"units" "V"
)
"Vn_D1:i" "A" PROP(
"units" "A"
)
"Vn_D1:pwr" "W" PROP(
"units" "W"
)
"Vn_GND:v" "V" PROP(
"units" "V"
)
"Vn_GND:i" "A" PROP(
"units" "A"
)
"Vn_GND:pwr" "W" PROP(
"units" "W"
)
"Vn_SD:v" "V" PROP(
"units" "V"
)
"Vn_SD:i" "A" PROP(
"units" "A"
)
"Vn_SD:pwr" "W" PROP(
"units" "W"
)
"Vn_VDD:v" "V" PROP(
"units" "V"
)
"Vn_VDD:i" "A" PROP(
"units" "A"
)
"Vn_VDD:pwr" "W" PROP(
"units" "W"
)
"Vn_Z:v" "V" PROP(
"units" "V"
)
"Vn_Z:i" "A" PROP(
"units" "A"
)
"Vn_Z:pwr" "W" PROP(
"units" "W"
)
"n_Z" "V"
"n_D1" "V"
"n_SD" "V"
"Vn_D1:n" "I"
"Vn_D1:p" "I"
"Vn_GND:n" "I"
"Vn_GND:p" "I"
"Vn_SD:n" "I"
"Vn_SD:p" "I"
"Vn_VDD:n" "I"
"Vn_VDD:p" "I"
"Vn_Z:n" "I"
"Vn_Z:p" "I"
VALUE
"time" 0.000000000000000e+00
"Vn_D1:v" 0.000000000000000e+00
"Vn_D1:i" 7.517119452868265e-14
"Vn_D1:pwr" 0.000000000000000e+00
"Vn_GND:v" 0.000000000000000e+00
"Vn_GND:i" 2.548493107913159e-10
"Vn_GND:pwr" 0.000000000000000e+00
"Vn_SD:v" 0.000000000000000e+00
"Vn_SD:i" -5.105704018311278e-13
"Vn_SD:pwr" -0.000000000000000e+00
"Vn_VDD:v" 1.200000000000000e+00
"Vn_VDD:i" -2.544688430803598e-10
"Vn_VDD:pwr" -3.053626116964317e-10
"Vn_Z:v" 0.000000000000000e+00
"Vn_Z:i" 0.000000000000000e+00
"Vn_Z:pwr" 0.000000000000000e+00
"n_Z" 1.199999494927445e+00
"n_D1" 0.000000000000000e+00
"n_SD" 1.200000000000000e+00
"Vn_D1:n" -7.517119452868265e-14
"Vn_D1:p" 7.517119452868265e-14
"Vn_GND:n" -2.548493107913159e-10
"Vn_GND:p" 2.548493107913159e-10
"Vn_SD:n" 5.105704018311278e-13
"Vn_SD:p" -5.105704018311278e-13
"Vn_VDD:n" 2.544688430803598e-10
"Vn_VDD:p" -2.544688430803598e-10
"Vn_Z:n" 0.000000000000000e+00
"Vn_Z:p" 0.000000000000000e+00
"time" 3.900000000000000e-11
"Vn_D1:v" 0.000000000000000e+00
"Vn_D1:i" 7.484781166487545e-14
"Vn_D1:pwr" 0.000000000000000e+00
"Vn_GND:v" 0.000000000000000e+00
"Vn_GND:i" 2.548642668286311e-10
"Vn_GND:pwr" 0.000000000000000e+00
"Vn_SD:v" 0.000000000000000e+00
"Vn_SD:i" -5.109809315161127e-13
"Vn_SD:pwr" -0.000000000000000e+00
"Vn_VDD:v" 1.200000000000000e+00
"Vn_VDD:i" -2.544789732280527e-10
"Vn_VDD:pwr" -3.053747678736633e-10
"Vn_Z:v" 0.000000000000000e+00
"Vn_Z:i" -4.091976387937800e-15
"Vn_Z:pwr" -0.000000000000000e+00
"n_Z" 1.199999494888521e+00
"n_D1" 0.000000000000000e+00
"n_SD" 1.200000000000000e+00
"Vn_D1:n" -7.484781166487545e-14
"Vn_D1:p" 7.484781166487545e-14
"Vn_GND:n" -2.548642668286311e-10
"Vn_GND:p" 2.548642668286311e-10
"Vn_SD:n" 5.109809315161127e-13
"Vn_SD:p" -5.109809315161127e-13
"Vn_VDD:n" 2.544789732280527e-10
"Vn_VDD:p" -2.544789732280527e-10
"Vn_Z:n" 4.091976387937800e-15
"Vn_Z:p" -4.091976387937800e-15
"time" 1.170000000000000e-10
"Vn_D1:v" 0.000000000000000e+00
"Vn_D1:i" 7.504878202880070e-14
"Vn_D1:pwr" 0.000000000000000e+00
"Vn_GND:v" 0.000000000000000e+00
"Vn_GND:i" 2.548656989310694e-10
"Vn_GND:pwr" 0.000000000000000e+00
"Vn_SD:v" 0.000000000000000e+00
"Vn_SD:i" -5.107083228724799e-13
"Vn_SD:pwr" -0.000000000000000e+00
"Vn_VDD:v" 1.200000000000000e+00
"Vn_VDD:i" -2.544837169895335e-10
"Vn_VDD:pwr" -3.053804603874402e-10
"Vn_Z:v" 0.000000000000000e+00
"Vn_Z:i" -1.253876692956627e-15
"Vn_Z:pwr" -0.000000000000000e+00
"n_Z" 1.199999494864667e+00
"n_D1" 0.000000000000000e+00
"n_SD" 1.200000000000000e+00
"Vn_D1:n" -7.504878202880070e-14
"Vn_D1:p" 7.504878202880070e-14
"Vn_GND:n" -2.548656989310694e-10
"Vn_GND:p" 2.548656989310694e-10
"Vn_SD:n" 5.107083228724799e-13
"Vn_SD:p" -5.107083228724799e-13
"Vn_VDD:n" 2.544837169895335e-10
"Vn_VDD:p" -2.544837169895335e-10
"Vn_Z:n" 1.253876692956627e-15
"Vn_Z:p" -1.253876692956627e-15
"time" 2.730000000000000e-10
"Vn_D1:v" 0.000000000000000e+00
"Vn_D1:i" 7.521592432165195e-14
"Vn_D1:pwr" 0.000000000000000e+00
"Vn_GND:v" 0.000000000000000e+00
"Vn_GND:i" 2.548665459919224e-10
"Vn_GND:pwr" 0.000000000000000e+00
"Vn_SD:v" 0.000000000000000e+00
"Vn_SD:i" -5.105193857907370e-13
"Vn_SD:pwr" -0.000000000000000e+00
"Vn_VDD:v" 1.200000000000000e+00
"Vn_VDD:i" -2.544866495129932e-10
"Vn_VDD:pwr" -3.053839794155919e-10
"Vn_Z:v" 0.000000000000000e+00
"Vn_Z:i" 4.752654132862434e-16
"Vn_Z:pwr" 0.000000000000000e+00
"n_Z" 1.199999494849854e+00
"n_D1" 0.000000000000000e+00
"n_SD" 1.200000000000000e+00
"Vn_D1:n" -7.521592432165195e-14
"Vn_D1:p" 7.521592432165195e-14
"Vn_GND:n" -2.548665459919224e-10
"Vn_GND:p" 2.548665459919224e-10
"Vn_SD:n" 5.105193857907370e-13
"Vn_SD:p" -5.105193857907370e-13
"Vn_VDD:n" 2.544866495129932e-10
"Vn_VDD:p" -2.544866495129932e-10
"Vn_Z:n" -4.752654132862434e-16
"Vn_Z:p" 4.752654132862434e-16
"time" 5.850000000000002e-10
"Vn_D1:v" 0.000000000000000e+00
"Vn_D1:i" 7.514397034243758e-14
"Vn_D1:pwr" 0.000000000000000e+00
"Vn_GND:v" 0.000000000000000e+00
"Vn_GND:i" 2.548661445817518e-10
"Vn_GND:pwr" 0.000000000000000e+00
"Vn_SD:v" 0.000000000000000e+00
"Vn_SD:i" -5.106018267294036e-13
"Vn_SD:pwr" -0.000000000000000e+00
"Vn_VDD:v" 1.200000000000000e+00
"Vn_VDD:i" -2.544853193744635e-10
"Vn_VDD:pwr" -3.053823832493563e-10
"Vn_Z:v" 0.000000000000000e+00
"Vn_Z:i" -2.992136833810236e-16
"Vn_Z:pwr" -0.000000000000000e+00
"n_Z" 1.199999494856553e+00
"n_D1" 0.000000000000000e+00
"n_SD" 1.200000000000000e+00
"Vn_D1:n" -7.514397034243758e-14
"Vn_D1:p" 7.514397034243758e-14
"Vn_GND:n" -2.548661445817518e-10
"Vn_GND:p" 2.548661445817518e-10
"Vn_SD:n" 5.106018267294036e-13
"Vn_SD:p" -5.106018267294036e-13
"Vn_VDD:n" 2.544853193744635e-10
"Vn_VDD:p" -2.544853193744635e-10
"Vn_Z:n" 2.992136833810236e-16
"Vn_Z:p" -2.992136833810236e-16
"time" 1.209000000000000e-09
"Vn_D1:v" 0.000000000000000e+00
"Vn_D1:i" 7.519253168339546e-14
"Vn_D1:pwr" 0.000000000000000e+00
"Vn_GND:v" 0.000000000000000e+00
"Vn_GND:i" 2.548663741693675e-10
"Vn_GND:pwr" 0.000000000000000e+00
"Vn_SD:v" 0.000000000000000e+00
"Vn_SD:i" -5.105455582825906e-13
"Vn_SD:pwr" -0.000000000000000e+00
"Vn_VDD:v" 1.200000000000000e+00
"Vn_VDD:i" -2.544861936111072e-10
"Vn_VDD:pwr" -3.053834323333287e-10
"Vn_Z:v" 0.000000000000000e+00
"Vn_Z:i" 2.408330764618001e-16
"Vn_Z:pwr" 0.000000000000000e+00
"n_Z" 1.199999494852110e+00
"n_D1" 0.000000000000000e+00
"n_SD" 1.200000000000000e+00
"Vn_D1:n" -7.519253168339546e-14
"Vn_D1:p" 7.519253168339546e-14
"Vn_GND:n" -2.548663741693675e-10
"Vn_GND:p" 2.548663741693675e-10
"Vn_SD:n" 5.105455582825906e-13
"Vn_SD:p" -5.105455582825906e-13
"Vn_VDD:n" 2.544861936111072e-10
"Vn_VDD:p" -2.544861936111072e-10
"Vn_Z:n" -2.408330764618001e-16
"Vn_Z:p" 2.408330764618001e-16
"time" 1.989000000000000e-09
"Vn_D1:v" 0.000000000000000e+00
"Vn_D1:i" 7.515402584934257e-14
"Vn_D1:pwr" 0.000000000000000e+00
"Vn_GND:v" 0.000000000000000e+00
"Vn_GND:i" 2.548661126360755e-10
"Vn_GND:pwr" 0.000000000000000e+00
"Vn_SD:v" 0.000000000000000e+00
"Vn_SD:i" -5.105905510118688e-13
"Vn_SD:pwr" -0.000000000000000e+00
"Vn_VDD:v" 1.200000000000000e+00
"Vn_VDD:i" -2.544854096495412e-10
"Vn_VDD:pwr" -3.053824915794495e-10
"Vn_Z:v" 0.000000000000000e+00
"Vn_Z:i" -1.995071740497221e-16
"Vn_Z:pwr" -0.000000000000000e+00
"n_Z" 1.199999494856041e+00
"n_D1" 0.000000000000000e+00
"n_SD" 1.200000000000000e+00
"Vn_D1:n" -7.515402584934257e-14
"Vn_D1:p" 7.515402584934257e-14
"Vn_GND:n" -2.548661126360755e-10
"Vn_GND:p" 2.548661126360755e-10
"Vn_SD:n" 5.105905510118688e-13
"Vn_SD:p" -5.105905510118688e-13
"Vn_VDD:n" 2.544854096495412e-10
"Vn_VDD:p" -2.544854096495412e-10
"Vn_Z:n" 1.995071740497221e-16
"Vn_Z:p" -1.995071740497221e-16
"time" 2.769000000000001e-09
"Vn_D1:v" 0.000000000000000e+00
"Vn_D1:i" 7.518534219508872e-14
"Vn_D1:pwr" 0.000000000000000e+00
"Vn_GND:v" 0.000000000000000e+00
"Vn_GND:i" 2.548662466260104e-10
"Vn_GND:pwr" 0.000000000000000e+00
"Vn_SD:v" 0.000000000000000e+00
"Vn_SD:i" -5.105536308676822e-13
"Vn_SD:pwr" -0.000000000000000e+00
"Vn_VDD:v" 1.200000000000000e+00
"Vn_VDD:i" -2.544859763424605e-10
"Vn_VDD:pwr" -3.053831716109526e-10
"Vn_Z:v" 0.000000000000000e+00
"Vn_Z:i" 1.689207719900979e-16
"Vn_Z:pwr" 0.000000000000000e+00
"n_Z" 1.199999494853132e+00
"n_D1" 0.000000000000000e+00
"n_SD" 1.200000000000000e+00
"Vn_D1:n" -7.518534219508872e-14
"Vn_D1:p" 7.518534219508872e-14
"Vn_GND:n" -2.548662466260104e-10
"Vn_GND:p" 2.548662466260104e-10
"Vn_SD:n" 5.105536308676822e-13
"Vn_SD:p" -5.105536308676822e-13
"Vn_VDD:n" 2.544859763424605e-10
"Vn_VDD:p" -2.544859763424605e-10
"Vn_Z:n" -1.689207719900979e-16
"Vn_Z:p" 1.689207719900979e-16
"time" 3.000000000000000e-09
"Vn_D1:v" 0.000000000000000e+00
"Vn_D1:i" 7.516490174560281e-14
"Vn_D1:pwr" 0.000000000000000e+00
"Vn_GND:v" 0.000000000000000e+00
"Vn_GND:i" 2.548661084233099e-10
"Vn_GND:pwr" 0.000000000000000e+00
"Vn_SD:v" 0.000000000000000e+00
"Vn_SD:i" -5.105783269194535e-13
"Vn_SD:pwr" -0.000000000000000e+00
"Vn_VDD:v" 1.200000000000000e+00
"Vn_VDD:i" -2.544855334984542e-10
"Vn_VDD:pwr" -3.053826401981451e-10
"Vn_Z:v" 0.000000000000000e+00
"Vn_Z:i" -8.972668571642305e-17
"Vn_Z:pwr" -0.000000000000000e+00
"n_Z" 1.199999494855363e+00
"n_D1" 0.000000000000000e+00
"n_SD" 1.200000000000000e+00
"Vn_D1:n" -7.516490174560281e-14
"Vn_D1:p" 7.516490174560281e-14
"Vn_GND:n" -2.548661084233099e-10
"Vn_GND:p" 2.548661084233099e-10
"Vn_SD:n" 5.105783269194535e-13
"Vn_SD:p" -5.105783269194535e-13
"Vn_VDD:n" 2.544855334984542e-10
"Vn_VDD:p" -2.544855334984542e-10
"Vn_Z:n" 8.972668571642305e-17
"Vn_Z:p" -8.972668571642305e-17
"time" 3.010000000000000e-09
"Vn_D1:v" 0.000000000000000e+00
"Vn_D1:i" 7.516499332711656e-14
"Vn_D1:pwr" 0.000000000000000e+00
"Vn_GND:v" 0.000000000000000e+00
"Vn_GND:i" 2.548661168516638e-10
"Vn_GND:pwr" 0.000000000000000e+00
"Vn_SD:v" 0.000000000000000e+00
"Vn_SD:i" -5.105775353661614e-13
"Vn_SD:pwr" -0.000000000000000e+00
"Vn_VDD:v" 1.200000000000000e+00
"Vn_VDD:i" -2.544855678877554e-10
"Vn_VDD:pwr" -3.053826814653064e-10
"Vn_Z:v" 0.000000000000000e+00
"Vn_Z:i" -6.786453268122858e-17
"Vn_Z:pwr" -0.000000000000000e+00
"n_Z" 1.199999494855197e+00
"n_D1" 0.000000000000000e+00
"n_SD" 1.200000000000000e+00
"Vn_D1:n" -7.516499332711656e-14
"Vn_D1:p" 7.516499332711656e-14
"Vn_GND:n" -2.548661168516638e-10
"Vn_GND:p" 2.548661168516638e-10
"Vn_SD:n" 5.105775353661614e-13
"Vn_SD:p" -5.105775353661614e-13
"Vn_VDD:n" 2.544855678877554e-10
"Vn_VDD:p" -2.544855678877554e-10
"Vn_Z:n" 6.786453268122858e-17
"Vn_Z:p" -6.786453268122858e-17
"time" 3.030000000000000e-09
"Vn_D1:v" 0.000000000000000e+00
"Vn_D1:i" 7.516698385865530e-14
"Vn_D1:pwr" 0.000000000000000e+00
"Vn_GND:v" 0.000000000000000e+00
"Vn_GND:i" 2.548661280423199e-10
"Vn_GND:pwr" 0.000000000000000e+00
"Vn_SD:v" 0.000000000000000e+00
"Vn_SD:i" -5.105750258122335e-13
"Vn_SD:pwr" -0.000000000000000e+00
"Vn_VDD:v" 1.200000000000000e+00
"Vn_VDD:i" -2.544856087902501e-10
"Vn_VDD:pwr" -3.053827305483001e-10
"Vn_Z:v" 0.000000000000000e+00
"Vn_Z:i" -4.267829793682417e-17
"Vn_Z:pwr" -0.000000000000000e+00
"n_Z" 1.199999494854989e+00
"n_D1" 0.000000000000000e+00
"n_SD" 1.200000000000000e+00
"Vn_D1:n" -7.516698385865530e-14
"Vn_D1:p" 7.516698385865530e-14
"Vn_GND:n" -2.548661280423199e-10
"Vn_GND:p" 2.548661280423199e-10
"Vn_SD:n" 5.105750258122335e-13
"Vn_SD:p" -5.105750258122335e-13
"Vn_VDD:n" 2.544856087902501e-10
"Vn_VDD:p" -2.544856087902501e-10
"Vn_Z:n" 4.267829793682417e-17
"Vn_Z:p" -4.267829793682417e-17
"time" 3.070000000000001e-09
"Vn_D1:v" 0.000000000000000e+00
"Vn_D1:i" 7.517004012044860e-14
"Vn_D1:pwr" 0.000000000000000e+00
"Vn_GND:v" 0.000000000000000e+00
"Vn_GND:i" 2.548661413112383e-10
"Vn_GND:pwr" 0.000000000000000e+00
"Vn_SD:v" 0.000000000000000e+00
"Vn_SD:i" -5.105717971726659e-13
"Vn_SD:pwr" -0.000000000000000e+00
"Vn_VDD:v" 1.200000000000000e+00
"Vn_VDD:i" -2.544856621710021e-10
"Vn_VDD:pwr" -3.053827946052025e-10
"Vn_Z:v" 0.000000000000000e+00
"Vn_Z:i" -1.095826084820270e-17
"Vn_Z:pwr" -0.000000000000000e+00
"n_Z" 1.199999494854727e+00
"n_D1" 0.000000000000000e+00
"n_SD" 1.200000000000000e+00
"Vn_D1:n" -7.517004012044860e-14
"Vn_D1:p" 7.517004012044860e-14
"Vn_GND:n" -2.548661413112383e-10
"Vn_GND:p" 2.548661413112383e-10
"Vn_SD:n" 5.105717971726659e-13
"Vn_SD:p" -5.105717971726659e-13
"Vn_VDD:n" 2.544856621710021e-10
"Vn_VDD:p" -2.544856621710021e-10
"Vn_Z:n" 1.095826084820270e-17
"Vn_Z:p" -1.095826084820270e-17
"time" 3.150000000000003e-09
"Vn_D1:v" 0.000000000000000e+00
"Vn_D1:i" 7.517139060080256e-14
"Vn_D1:pwr" 0.000000000000000e+00
"Vn_GND:v" 0.000000000000000e+00
"Vn_GND:i" 2.548661429487884e-10
"Vn_GND:pwr" 0.000000000000000e+00
"Vn_SD:v" 0.000000000000000e+00
"Vn_SD:i" -5.105700790574444e-13
"Vn_SD:pwr" -0.000000000000000e+00
"Vn_VDD:v" 1.200000000000000e+00
"Vn_VDD:i" -2.544856781592797e-10
"Vn_VDD:pwr" -3.053828137911357e-10
"Vn_Z:v" 0.000000000000000e+00
"Vn_Z:i" 1.544715562868376e-18
"Vn_Z:pwr" 0.000000000000000e+00
"n_Z" 1.199999494854635e+00
"n_D1" 0.000000000000000e+00
"n_SD" 1.200000000000000e+00
"Vn_D1:n" -7.517139060080256e-14
"Vn_D1:p" 7.517139060080256e-14
"Vn_GND:n" -2.548661429487884e-10
"Vn_GND:p" 2.548661429487884e-10
"Vn_SD:n" 5.105700790574444e-13
"Vn_SD:p" -5.105700790574444e-13
"Vn_VDD:n" 2.544856781592797e-10
"Vn_VDD:p" -2.544856781592797e-10
"Vn_Z:n" -1.544715562868376e-18
"Vn_Z:p" 1.544715562868376e-18
"time" 3.310000000000005e-09
"Vn_D1:v" 0.000000000000000e+00
"Vn_D1:i" 7.517123524072219e-14
"Vn_D1:pwr" 0.000000000000000e+00
"Vn_GND:v" 0.000000000000000e+00
"Vn_GND:i" 2.548661332698002e-10
"Vn_GND:pwr" 0.000000000000000e+00
"Vn_SD:v" 0.000000000000000e+00
"Vn_SD:i" -5.105704060230907e-13
"Vn_SD:pwr" -0.000000000000000e+00
"Vn_VDD:v" 1.200000000000000e+00
"Vn_VDD:i" -2.544856667434666e-10
"Vn_VDD:pwr" -3.053828000921599e-10
"Vn_Z:v" 0.000000000000000e+00
"Vn_Z:i" 1.116239995946481e-18
"Vn_Z:pwr" 0.000000000000000e+00
"n_Z" 1.199999494854687e+00
"n_D1" 0.000000000000000e+00
"n_SD" 1.200000000000000e+00
"Vn_D1:n" -7.517123524072219e-14
"Vn_D1:p" 7.517123524072219e-14
"Vn_GND:n" -2.548661332698002e-10
"Vn_GND:p" 2.548661332698002e-10
"Vn_SD:n" 5.105704060230907e-13
"Vn_SD:p" -5.105704060230907e-13
"Vn_VDD:n" 2.544856667434666e-10
"Vn_VDD:p" -2.544856667434666e-10
"Vn_Z:n" -1.116239995946481e-18
"Vn_Z:p" 1.116239995946481e-18
"time" 3.630000000000011e-09
"Vn_D1:v" 0.000000000000000e+00
"Vn_D1:i" 7.517132400195954e-14
"Vn_D1:pwr" 0.000000000000000e+00
"Vn_GND:v" 0.000000000000000e+00
"Vn_GND:i" 2.548661144679778e-10
"Vn_GND:pwr" 0.000000000000000e+00
"Vn_SD:v" 0.000000000000000e+00
"Vn_SD:i" -5.105702110212792e-13
"Vn_SD:pwr" -0.000000000000000e+00
"Vn_VDD:v" 1.200000000000000e+00
"Vn_VDD:i" -2.544856493269974e-10
"Vn_VDD:pwr" -3.053827791923968e-10
"Vn_Z:v" 0.000000000000000e+00
"Vn_Z:i" 4.916371083463108e-19
"Vn_Z:pwr" 0.000000000000000e+00
"n_Z" 1.199999494854750e+00
"n_D1" 0.000000000000000e+00
"n_SD" 1.200000000000000e+00
"Vn_D1:n" -7.517132400195954e-14
"Vn_D1:p" 7.517132400195954e-14
"Vn_GND:n" -2.548661144679778e-10
"Vn_GND:p" 2.548661144679778e-10
"Vn_SD:n" 5.105702110212792e-13
"Vn_SD:p" -5.105702110212792e-13
"Vn_VDD:n" 2.544856493269974e-10
"Vn_VDD:p" -2.544856493269974e-10
"Vn_Z:n" -4.916371083463108e-19
"Vn_Z:p" 4.916371083463108e-19
"time" 4.270000000000022e-09
"Vn_D1:v" 0.000000000000000e+00
"Vn_D1:i" 7.517138596331563e-14
"Vn_D1:pwr" 0.000000000000000e+00
"Vn_GND:v" 0.000000000000000e+00
"Vn_GND:i" 2.548660783664338e-10
"Vn_GND:pwr" 0.000000000000000e+00
"Vn_SD:v" 0.000000000000000e+00
"Vn_SD:i" -5.105701992577471e-13
"Vn_SD:pwr" -0.000000000000000e+00
"Vn_VDD:v" 1.200000000000000e+00
"Vn_VDD:i" -2.544856068613463e-10
"Vn_VDD:pwr" -3.053827282336156e-10
"Vn_Z:v" 0.000000000000000e+00
"Vn_Z:i" 2.045299328008416e-18
"Vn_Z:pwr" 0.000000000000000e+00
"n_Z" 1.199999494854948e+00
"n_D1" 0.000000000000000e+00
"n_SD" 1.200000000000000e+00
"Vn_D1:n" -7.517138596331563e-14
"Vn_D1:p" 7.517138596331563e-14
"Vn_GND:n" -2.548660783664338e-10
"Vn_GND:p" 2.548660783664338e-10
"Vn_SD:n" 5.105701992577471e-13
"Vn_SD:p" -5.105701992577471e-13
"Vn_VDD:n" 2.544856068613463e-10
"Vn_VDD:p" -2.544856068613463e-10
"Vn_Z:n" -2.045299328008416e-18
"Vn_Z:p" 2.045299328008416e-18
"time" 5.050000000000022e-09
"Vn_D1:v" 0.000000000000000e+00
"Vn_D1:i" 7.517126892672130e-14
"Vn_D1:pwr" 0.000000000000000e+00
"Vn_GND:v" 0.000000000000000e+00
"Vn_GND:i" 2.548660316127652e-10
"Vn_GND:pwr" 0.000000000000000e+00
"Vn_SD:v" 0.000000000000000e+00
"Vn_SD:i" -5.105703008539077e-13
"Vn_SD:pwr" -0.000000000000000e+00
"Vn_VDD:v" 1.200000000000000e+00
"Vn_VDD:i" -2.544855655375729e-10
"Vn_VDD:pwr" -3.053826786450874e-10
"Vn_Z:v" 0.000000000000000e+00
"Vn_Z:i" -3.472911173647004e-19
"Vn_Z:pwr" -0.000000000000000e+00
"n_Z" 1.199999494855110e+00
"n_D1" 0.000000000000000e+00
"n_SD" 1.200000000000000e+00
"Vn_D1:n" -7.517126892672130e-14
"Vn_D1:p" 7.517126892672130e-14
"Vn_GND:n" -2.548660316127652e-10
"Vn_GND:p" 2.548660316127652e-10
"Vn_SD:n" 5.105703008539077e-13
"Vn_SD:p" -5.105703008539077e-13
"Vn_VDD:n" 2.544855655375729e-10
"Vn_VDD:p" -2.544855655375729e-10
"Vn_Z:n" 3.472911173647004e-19
"Vn_Z:p" -3.472911173647004e-19
"time" 5.830000000000022e-09
"Vn_D1:v" 0.000000000000000e+00
"Vn_D1:i" 7.517122583687436e-14
"Vn_D1:pwr" 0.000000000000000e+00
"Vn_GND:v" 0.000000000000000e+00
"Vn_GND:i" 2.548659869657011e-10
"Vn_GND:pwr" 0.000000000000000e+00
"Vn_SD:v" 0.000000000000000e+00
"Vn_SD:i" -5.105703645128835e-13
"Vn_SD:pwr" -0.000000000000000e+00
"Vn_VDD:v" 1.200000000000000e+00
"Vn_VDD:i" -2.544855234716911e-10
"Vn_VDD:pwr" -3.053826281660293e-10
"Vn_Z:v" 0.000000000000000e+00
"Vn_Z:i" 2.562647353170475e-18
"Vn_Z:pwr" 0.000000000000000e+00
"n_Z" 1.199999494855320e+00
"n_D1" 0.000000000000000e+00
"n_SD" 1.200000000000000e+00
"Vn_D1:n" -7.517122583687436e-14
"Vn_D1:p" 7.517122583687436e-14
"Vn_GND:n" -2.548659869657011e-10
"Vn_GND:p" 2.548659869657011e-10
"Vn_SD:n" 5.105703645128835e-13
"Vn_SD:p" -5.105703645128835e-13
"Vn_VDD:n" 2.544855234716911e-10
"Vn_VDD:p" -2.544855234716911e-10
"Vn_Z:n" -2.562647353170475e-18
"Vn_Z:p" 2.562647353170475e-18
"time" 6.010000000000000e-09
"Vn_D1:v" 0.000000000000000e+00
"Vn_D1:i" 7.517143617123198e-14
"Vn_D1:pwr" 0.000000000000000e+00
"Vn_GND:v" 0.000000000000000e+00
"Vn_GND:i" 2.548659769530751e-10
"Vn_GND:pwr" 0.000000000000000e+00
"Vn_SD:v" 0.000000000000000e+00
"Vn_SD:i" -5.105701375452433e-13
"Vn_SD:pwr" -0.000000000000000e+00
"Vn_VDD:v" 1.200000000000000e+00
"Vn_VDD:i" -2.544855086314333e-10
"Vn_VDD:pwr" -3.053826103577200e-10
"Vn_Z:v" 0.000000000000000e+00
"Vn_Z:i" -1.093198732658533e-18
"Vn_Z:pwr" -0.000000000000000e+00
"n_Z" 1.199999494855353e+00
"n_D1" 0.000000000000000e+00
"n_SD" 1.200000000000000e+00
"Vn_D1:n" -7.517143617123198e-14
"Vn_D1:p" 7.517143617123198e-14
"Vn_GND:n" -2.548659769530751e-10
"Vn_GND:p" 2.548659769530751e-10
"Vn_SD:n" 5.105701375452433e-13
"Vn_SD:p" -5.105701375452433e-13
"Vn_VDD:n" 2.544855086314333e-10
"Vn_VDD:p" -2.544855086314333e-10
"Vn_Z:n" 1.093198732658533e-18
"Vn_Z:p" -1.093198732658533e-18
"time" 6.019999795400000e-09
"Vn_D1:v" 0.000000000000000e+00
"Vn_D1:i" 7.517120734530075e-14
"Vn_D1:pwr" 0.000000000000000e+00
"Vn_GND:v" 0.000000000000000e+00
"Vn_GND:i" 2.548659761060192e-10
"Vn_GND:pwr" 0.000000000000000e+00
"Vn_SD:v" 0.000000000000000e+00
"Vn_SD:i" -5.105702647437118e-13
"Vn_SD:pwr" -0.000000000000000e+00
"Vn_VDD:v" 1.200000000000000e+00
"Vn_VDD:i" -2.544855105139271e-10
"Vn_VDD:pwr" -3.053826126167125e-10
"Vn_Z:v" 0.000000000000000e+00
"Vn_Z:i" 1.974942440800231e-18
"Vn_Z:pwr" 0.000000000000000e+00
"n_Z" 1.199999494855357e+00
"n_D1" 0.000000000000000e+00
"n_SD" 1.200000000000000e+00
"Vn_D1:n" -7.517120734530075e-14
"Vn_D1:p" 7.517120734530075e-14
"Vn_GND:n" -2.548659761060192e-10
"Vn_GND:p" 2.548659761060192e-10
"Vn_SD:n" 5.105702647437118e-13
"Vn_SD:p" -5.105702647437118e-13
"Vn_VDD:n" 2.544855105139271e-10
"Vn_VDD:p" -2.544855105139271e-10
"Vn_Z:n" -1.974942440800231e-18
"Vn_Z:p" 1.974942440800231e-18
"time" 6.020000000000000e-09
"Vn_D1:v" 0.000000000000000e+00
"Vn_D1:i" -1.348174194061104e-06
"Vn_D1:pwr" -0.000000000000000e+00
"Vn_GND:v" 0.000000000000000e+00
"Vn_GND:i" 2.421593909998074e-07
"Vn_GND:pwr" 0.000000000000000e+00
"Vn_SD:v" 0.000000000000000e+00
"Vn_SD:i" 5.440674129820443e-11
"Vn_SD:pwr" 0.000000000000000e+00
"Vn_VDD:v" 1.200000000000000e+00
"Vn_VDD:i" 1.105960116393894e-06
"Vn_VDD:pwr" 1.327152139672673e-06
"Vn_Z:v" 0.000000000000000e+00
"Vn_Z:i" 2.244602986320255e-13
"Vn_Z:pwr" 0.000000000000000e+00
"n_Z" 1.199999494855368e+00
"n_D1" 2.456580613633633e-07
"n_SD" 1.200000000000000e+00
"Vn_D1:n" 1.348174194061104e-06
"Vn_D1:p" -1.348174194061104e-06
"Vn_GND:n" -2.421593909998074e-07
"Vn_GND:p" 2.421593909998074e-07
"Vn_SD:n" -5.440674129820443e-11
"Vn_SD:p" 5.440674129820443e-11
"Vn_VDD:n" -1.105960116393894e-06
"Vn_VDD:p" 1.105960116393894e-06
"Vn_Z:n" -2.244602986320255e-13
"Vn_Z:p" 2.244602986320255e-13
"time" 6.020000409200001e-09
"Vn_D1:v" 0.000000000000000e+00
"Vn_D1:i" -1.349430107846706e-06
"Vn_D1:pwr" -0.000000000000000e+00
"Vn_GND:v" 0.000000000000000e+00
"Vn_GND:i" 2.423764576833389e-07
"Vn_GND:pwr" 0.000000000000000e+00
"Vn_SD:v" 0.000000000000000e+00
"Vn_SD:i" 1.639642045073925e-10
"Vn_SD:pwr" 0.000000000000000e+00
"Vn_VDD:v" 1.200000000000000e+00
"Vn_VDD:i" 1.106888072118479e-06
"Vn_VDD:pwr" 1.328265686542175e-06
"Vn_Z:v" 0.000000000000000e+00
"Vn_Z:i" 1.559604276906555e-12
"Vn_Z:pwr" 0.000000000000000e+00
"n_Z" 1.199999494855524e+00
"n_D1" 7.369741840900898e-07
"n_SD" 1.200000000000000e+00
"Vn_D1:n" 1.349430107846706e-06
"Vn_D1:p" -1.349430107846706e-06
"Vn_GND:n" -2.423764576833389e-07
"Vn_GND:p" 2.423764576833389e-07
"Vn_SD:n" -1.639642045073925e-10
"Vn_SD:p" 1.639642045073925e-10
"Vn_VDD:n" -1.106888072118479e-06
"Vn_VDD:p" 1.106888072118479e-06
"Vn_Z:n" -1.559604276906555e-12
"Vn_Z:p" 1.559604276906555e-12
"time" 6.020001227600002e-09
"Vn_D1:v" 0.000000000000000e+00
"Vn_D1:i" -1.351934666902441e-06
"Vn_D1:pwr" -0.000000000000000e+00
"Vn_GND:v" 0.000000000000000e+00
"Vn_GND:i" 2.428094215654489e-07
"Vn_GND:pwr" 0.000000000000000e+00
"Vn_SD:v" 0.000000000000000e+00
"Vn_SD:i" 3.825218196606173e-10
"Vn_SD:pwr" 0.000000000000000e+00
"Vn_VDD:v" 1.200000000000000e+00
"Vn_VDD:i" 1.108736688193824e-06
"Vn_VDD:pwr" 1.330484025832589e-06
"Vn_Z:v" 0.000000000000000e+00
"Vn_Z:i" 5.979457633406906e-12
"Vn_Z:pwr" 0.000000000000000e+00
"n_Z" 1.199999494856276e+00
"n_D1" 1.719606429543543e-06
"n_SD" 1.200000000000000e+00
"Vn_D1:n" 1.351934666902441e-06
"Vn_D1:p" -1.351934666902441e-06
"Vn_GND:n" -2.428094215654489e-07
"Vn_GND:p" 2.428094215654489e-07
"Vn_SD:n" -3.825218196606173e-10
"Vn_SD:p" 3.825218196606173e-10
"Vn_VDD:n" -1.108736688193824e-06
"Vn_VDD:p" 1.108736688193824e-06
"Vn_Z:n" -5.979457633406906e-12
"Vn_Z:p" 5.979457633406906e-12
"time" 6.020002864400004e-09
"Vn_D1:v" 0.000000000000000e+00
"Vn_D1:i" -1.356900226976158e-06
"Vn_D1:pwr" -0.000000000000000e+00
"Vn_GND:v" 0.000000000000000e+00
"Vn_GND:i" 2.436683955390150e-07
"Vn_GND:pwr" 0.000000000000000e+00
"Vn_SD:v" 0.000000000000000e+00
"Vn_SD:i" 8.163336534868219e-10
"Vn_SD:pwr" 0.000000000000000e+00
"Vn_VDD:v" 1.200000000000000e+00
"Vn_VDD:i" 1.112390395011167e-06
"Vn_VDD:pwr" 1.334868474013400e-06
"Vn_Z:v" 0.000000000000000e+00
"Vn_Z:i" 2.504763915455378e-11
"Vn_Z:pwr" 0.000000000000000e+00
"n_Z" 1.199999494862470e+00
"n_D1" 3.684870920450449e-06
"n_SD" 1.200000000000000e+00
"Vn_D1:n" 1.356900226976158e-06
"Vn_D1:p" -1.356900226976158e-06
"Vn_GND:n" -2.436683955390150e-07
"Vn_GND:p" 2.436683955390150e-07
"Vn_SD:n" -8.163336534868219e-10
"Vn_SD:p" 8.163336534868219e-10
"Vn_VDD:n" -1.112390395011167e-06
"Vn_VDD:p" 1.112390395011167e-06
"Vn_Z:n" -2.504763915455378e-11
"Vn_Z:p" 2.504763915455378e-11
"time" 6.020006138000008e-09
"Vn_D1:v" 0.000000000000000e+00
"Vn_D1:i" -1.366660575285986e-06
"Vn_D1:pwr" -0.000000000000000e+00
"Vn_GND:v" 0.000000000000000e+00
"Vn_GND:i" 2.453588310266039e-07
"Vn_GND:pwr" 0.000000000000000e+00
"Vn_SD:v" 0.000000000000000e+00
"Vn_SD:i" 1.670841841308249e-09
"Vn_SD:pwr" 0.000000000000000e+00
"Vn_VDD:v" 1.200000000000000e+00
"Vn_VDD:i" 1.119529321494618e-06
"Vn_VDD:pwr" 1.343435185793542e-06
"Vn_Z:v" 0.000000000000000e+00
"Vn_Z:i" 1.015258361448054e-10
"Vn_Z:pwr" 0.000000000000000e+00
"n_Z" 1.199999494913000e+00
"n_D1" 7.615399902264261e-06
"n_SD" 1.200000000000000e+00
"Vn_D1:n" 1.366660575285986e-06
"Vn_D1:p" -1.366660575285986e-06
"Vn_GND:n" -2.453588310266039e-07
"Vn_GND:p" 2.453588310266039e-07
"Vn_SD:n" -1.670841841308249e-09
"Vn_SD:p" 1.670841841308249e-09
"Vn_VDD:n" -1.119529321494618e-06
"Vn_VDD:p" 1.119529321494618e-06
"Vn_Z:n" -1.015258361448054e-10
"Vn_Z:p" 1.015258361448054e-10
"time" 6.020012685200016e-09
"Vn_D1:v" 0.000000000000000e+00
"Vn_D1:i" -1.385521109651653e-06
"Vn_D1:pwr" -0.000000000000000e+00
"Vn_GND:v" 0.000000000000000e+00
"Vn_GND:i" 2.486323132582021e-07
"Vn_GND:pwr" 0.000000000000000e+00
"Vn_SD:v" 0.000000000000000e+00
"Vn_SD:i" 3.328584433794275e-09
"Vn_SD:pwr" 0.000000000000000e+00
"Vn_VDD:v" 1.200000000000000e+00
"Vn_VDD:i" 1.133170948898723e-06
"Vn_VDD:pwr" 1.359805138678468e-06
"Vn_Z:v" 0.000000000000000e+00
"Vn_Z:i" 3.892079499869928e-10
"Vn_Z:pwr" 0.000000000000000e+00
"n_Z" 1.199999495304822e+00
"n_D1" 1.547645786589189e-05
"n_SD" 1.200000000000000e+00
"Vn_D1:n" 1.385521109651653e-06
"Vn_D1:p" -1.385521109651653e-06
"Vn_GND:n" -2.486323132582021e-07
"Vn_GND:p" 2.486323132582021e-07
"Vn_SD:n" -3.328584433794275e-09
"Vn_SD:p" 3.328584433794275e-09
"Vn_VDD:n" -1.133170948898723e-06
"Vn_VDD:p" 1.133170948898723e-06
"Vn_Z:n" -3.892079499869928e-10
"Vn_Z:p" 3.892079499869928e-10
"time" 6.020025779600032e-09
"Vn_D1:v" 0.000000000000000e+00
"Vn_D1:i" -1.413780297895691e-06
"Vn_D1:pwr" -0.000000000000000e+00
"Vn_GND:v" 0.000000000000000e+00
"Vn_GND:i" 2.547830723443064e-07
"Vn_GND:pwr" 0.000000000000000e+00
"Vn_SD:v" 0.000000000000000e+00
"Vn_SD:i" 6.448968745656849e-09
"Vn_SD:pwr" 0.000000000000000e+00
"Vn_VDD:v" 1.200000000000000e+00
"Vn_VDD:i" 1.151165556753308e-06
"Vn_VDD:pwr" 1.381398668103970e-06
"Vn_Z:v" 0.000000000000000e+00
"Vn_Z:i" 1.382645269579287e-09
"Vn_Z:pwr" 0.000000000000000e+00
"n_Z" 1.199999498134255e+00
"n_D1" 3.119857379314713e-05
"n_SD" 1.200000000000000e+00
"Vn_D1:n" 1.413780297895691e-06
"Vn_D1:p" -1.413780297895691e-06
"Vn_GND:n" -2.547830723443064e-07
"Vn_GND:p" 2.547830723443064e-07
"Vn_SD:n" -6.448968745656849e-09
"Vn_SD:p" 6.448968745656849e-09
"Vn_VDD:n" -1.151165556753308e-06
"Vn_VDD:p" 1.151165556753308e-06
"Vn_Z:n" -1.382645269579287e-09
"Vn_Z:p" 1.382645269579287e-09
"time" 6.020051968400065e-09
"Vn_D1:v" 0.000000000000000e+00
"Vn_D1:i" -1.463281177460666e-06
"Vn_D1:pwr" -0.000000000000000e+00
"Vn_GND:v" 0.000000000000000e+00
"Vn_GND:i" 2.656772824937837e-07
"Vn_GND:pwr" 0.000000000000000e+00
"Vn_SD:v" 0.000000000000000e+00
"Vn_SD:i" 1.199064937596664e-08
"Vn_SD:pwr" 0.000000000000000e+00
"Vn_VDD:v" 1.200000000000000e+00
"Vn_VDD:i" 1.181231253161556e-06
"Vn_VDD:pwr" 1.417477503793867e-06
"Vn_Z:v" 0.000000000000000e+00
"Vn_Z:i" 4.381937350124620e-09
"Vn_Z:pwr" 0.000000000000000e+00
"n_Z" 1.199999516544926e+00
"n_D1" 6.264280564765764e-05
"n_SD" 1.200000000000000e+00
"Vn_D1:n" 1.463281177460666e-06
"Vn_D1:p" -1.463281177460666e-06
"Vn_GND:n" -2.656772824937837e-07
"Vn_GND:p" 2.656772824937837e-07
"Vn_SD:n" -1.199064937596664e-08
"Vn_SD:p" 1.199064937596664e-08
"Vn_VDD:n" -1.181231253161556e-06
"Vn_VDD:p" 1.181231253161556e-06
"Vn_Z:n" -4.381937350124620e-09
"Vn_Z:p" 4.381937350124620e-09
"time" 6.020104346000130e-09
"Vn_D1:v" 0.000000000000000e+00
"Vn_D1:i" -1.554580109631444e-06
"Vn_D1:pwr" -0.000000000000000e+00
"Vn_GND:v" 0.000000000000000e+00
"Vn_GND:i" 2.827720178825520e-07
"Vn_GND:pwr" 0.000000000000000e+00
"Vn_SD:v" 0.000000000000000e+00
"Vn_SD:i" 2.080032967887622e-08
"Vn_SD:pwr" 0.000000000000000e+00