HEADER
"PSFversion" "1.00"
"simulator" "spectre"
"version" "10.1.1.164.isr11"
"date" "3:01:57 PM, Fri Oct 17, 2014"
"design" "* Spectre Timing Acquisition"
"analysis type" "tran"
"analysis name" "transient1-004_transient1"
"analysis description" "Transient Analysis `transient1-004_transient1': time = (0 s -> 39 ns)"
"xVecSorted" "ascending"
"tolerance.relative" 0.00100000
"start" 0.00000
"outputstart" 0.00000
"stop" 3.90000e-08
"step" 3.90000e-11
"maxstep" 7.80000e-10
"ic" "all"
"useprevic" "no"
"skipdc" "no"
"reltol" 0.00100000
"abstol(V)" 1.00000e-06
"abstol(I)" 1.00000e-12
"temp" 25.0000
"tnom" 27.0000
"tempeffects" "all"
"errpreset" "moderate"
"method" "traponly"
"lteratio" 3.50000
"relref" "sigglobal"
"cmin" 0.00000
"gmin" 1.00000e-12
TYPE
"sweep" FLOAT DOUBLE PROP(
"key" "sweep"
)
"Tau" FLOAT DOUBLE PROP(
"units" "N*m"
"key" "node"
"tolerance" 1.00000e-06
)
"Alpha" FLOAT DOUBLE PROP(
"units" "rads/s^2"
"key" "node"
"tolerance" 1.00000e-06
)
"Omega" FLOAT DOUBLE PROP(
"units" "rads/s"
"key" "node"
"tolerance" 1.00000e-06
)
"Theta" FLOAT DOUBLE PROP(
"units" "rads"
"key" "node"
"tolerance" 1.00000e-06
)
"F" FLOAT DOUBLE PROP(
"units" "N"
"key" "node"
"tolerance" 1.00000e-06
)
"Imp" FLOAT DOUBLE PROP(
"units" "m/s^3"
"key" "node"
"tolerance" 1.00000e-06
)
"Acc" FLOAT DOUBLE PROP(
"units" "m/s^2"
"key" "node"
"tolerance" 1.00000e-06
)
"Vel" FLOAT DOUBLE PROP(
"units" "m/s"
"key" "node"
"tolerance" 1.00000e-06
)
"Pos" FLOAT DOUBLE PROP(
"units" "m"
"key" "node"
"tolerance" 1.00000e-06
)
"Phi" FLOAT DOUBLE PROP(
"units" "Wb"
"key" "node"
"tolerance" 1.00000e-09
)
"Q" FLOAT DOUBLE PROP(
"units" "coul"
"key" "node"
"tolerance" 1.00000e-14
)
"V" FLOAT DOUBLE PROP(
"units" "V"
"key" "node"
"tolerance" 1.00000e-06
)
"I" FLOAT DOUBLE PROP(
"units" "A"
"key" "branch"
"tolerance" 1.00000e-12
)
"MMF" FLOAT DOUBLE PROP(
"units" "A*turn"
"key" "node"
"tolerance" 1.00000e-12
)
"Wb" FLOAT DOUBLE PROP(
"units" "Wb"
"key" "node"
"tolerance" 1.00000e-09
)
"Temp" FLOAT DOUBLE PROP(
"units" "C"
"key" "node"
"tolerance" 0.000100000
)
"Pwr" FLOAT DOUBLE PROP(
"units" "W"
"key" "node"
"tolerance" 1.00000e-09
)
"U" FLOAT DOUBLE PROP(
"units" ""
"key" "node"
"tolerance" 1.00000e-06
)
"V/Sec" FLOAT DOUBLE PROP(
"units" "V/s"
"key" "node"
"tolerance" 0.000100000
)
"I/Sec" FLOAT DOUBLE PROP(
"units" "A/s"
"key" "node"
"tolerance" 1.00000e-06
)
"1/Sec" FLOAT DOUBLE PROP(
"units" "1/s"
"key" "node"
"tolerance" 0.000100000
)
"HOD" FLOAT DOUBLE PROP(
"units" ""
"key" "node"
"tolerance" 0.0100000
)
"A" FLOAT DOUBLE PROP(
"key" "inst"
)
"W" FLOAT DOUBLE PROP(
"key" "inst"
)
SWEEP
"time" "sweep" PROP(
"sweep_direction" 0
"units" "s"
"plot" 0
"grid" 1
)
TRACE
"Vn_D1:v" "V" PROP(
"units" "V"
)
"Vn_D1:i" "A" PROP(
"units" "A"
)
"Vn_D1:pwr" "W" PROP(
"units" "W"
)
"Vn_GND:v" "V" PROP(
"units" "V"
)
"Vn_GND:i" "A" PROP(
"units" "A"
)
"Vn_GND:pwr" "W" PROP(
"units" "W"
)
"Vn_SD:v" "V" PROP(
"units" "V"
)
"Vn_SD:i" "A" PROP(
"units" "A"
)
"Vn_SD:pwr" "W" PROP(
"units" "W"
)
"Vn_VDD:v" "V" PROP(
"units" "V"
)
"Vn_VDD:i" "A" PROP(
"units" "A"
)
"Vn_VDD:pwr" "W" PROP(
"units" "W"
)
"Vn_Z:v" "V" PROP(
"units" "V"
)
"Vn_Z:i" "A" PROP(
"units" "A"
)
"Vn_Z:pwr" "W" PROP(
"units" "W"
)
"n_Z" "V"
"n_D1" "V"
"n_SD" "V"
"Vn_D1:n" "I"
"Vn_D1:p" "I"
"Vn_GND:n" "I"
"Vn_GND:p" "I"
"Vn_SD:n" "I"
"Vn_SD:p" "I"
"Vn_VDD:n" "I"
"Vn_VDD:p" "I"
"Vn_Z:n" "I"
"Vn_Z:p" "I"
VALUE
"time" 0.000000000000000e+00
"Vn_D1:v" 0.000000000000000e+00
"Vn_D1:i" 7.517119452868271e-14
"Vn_D1:pwr" 0.000000000000000e+00
"Vn_GND:v" 0.000000000000000e+00
"Vn_GND:i" 2.548493107915347e-10
"Vn_GND:pwr" 0.000000000000000e+00
"Vn_SD:v" 0.000000000000000e+00
"Vn_SD:i" -5.105704018311278e-13
"Vn_SD:pwr" -0.000000000000000e+00
"Vn_VDD:v" 1.200000000000000e+00
"Vn_VDD:i" -2.544688430804962e-10
"Vn_VDD:pwr" -3.053626116965954e-10
"Vn_Z:v" 0.000000000000000e+00
"Vn_Z:i" 0.000000000000000e+00
"Vn_Z:pwr" 0.000000000000000e+00
"n_Z" 1.199999494927445e+00
"n_D1" 0.000000000000000e+00
"n_SD" 1.200000000000000e+00
"Vn_D1:n" -7.517119452868271e-14
"Vn_D1:p" 7.517119452868271e-14
"Vn_GND:n" -2.548493107915347e-10
"Vn_GND:p" 2.548493107915347e-10
"Vn_SD:n" 5.105704018311278e-13
"Vn_SD:p" -5.105704018311278e-13
"Vn_VDD:n" 2.544688430804962e-10
"Vn_VDD:p" -2.544688430804962e-10
"Vn_Z:n" 0.000000000000000e+00
"Vn_Z:p" 0.000000000000000e+00
"time" 3.900000000000000e-11
"Vn_D1:v" 0.000000000000000e+00
"Vn_D1:i" 7.486143216668198e-14
"Vn_D1:pwr" 0.000000000000000e+00
"Vn_GND:v" 0.000000000000000e+00
"Vn_GND:i" 2.548643393155583e-10
"Vn_GND:pwr" 0.000000000000000e+00
"Vn_SD:v" 0.000000000000000e+00
"Vn_SD:i" -5.109604243144039e-13
"Vn_SD:pwr" -0.000000000000000e+00
"Vn_VDD:v" 1.200000000000000e+00
"Vn_VDD:i" -2.544783908777400e-10
"Vn_VDD:pwr" -3.053740690532880e-10
"Vn_Z:v" 0.000000000000000e+00
"Vn_Z:i" -4.780941331398446e-15
"Vn_Z:pwr" -0.000000000000000e+00
"n_Z" 1.199999494890153e+00
"n_D1" 0.000000000000000e+00
"n_SD" 1.200000000000000e+00
"Vn_D1:n" -7.486143216668198e-14
"Vn_D1:p" 7.486143216668198e-14
"Vn_GND:n" -2.548643393155583e-10
"Vn_GND:p" 2.548643393155583e-10
"Vn_SD:n" 5.109604243144039e-13
"Vn_SD:p" -5.109604243144039e-13
"Vn_VDD:n" 2.544783908777400e-10
"Vn_VDD:p" -2.544783908777400e-10
"Vn_Z:n" 4.780941331398446e-15
"Vn_Z:p" -4.780941331398446e-15
"time" 1.170000000000000e-10
"Vn_D1:v" 0.000000000000000e+00
"Vn_D1:i" 7.504752780333714e-14
"Vn_D1:pwr" 0.000000000000000e+00
"Vn_GND:v" 0.000000000000000e+00
"Vn_GND:i" 2.548656910724670e-10
"Vn_GND:pwr" 0.000000000000000e+00
"Vn_SD:v" 0.000000000000000e+00
"Vn_SD:i" -5.107113609844198e-13
"Vn_SD:pwr" -0.000000000000000e+00
"Vn_VDD:v" 1.200000000000000e+00
"Vn_VDD:i" -2.544834008446968e-10
"Vn_VDD:pwr" -3.053800810136361e-10
"Vn_Z:v" 0.000000000000000e+00
"Vn_Z:i" -1.557891361950464e-15
"Vn_Z:pwr" -0.000000000000000e+00
"n_Z" 1.199999494865850e+00
"n_D1" 0.000000000000000e+00
"n_SD" 1.200000000000000e+00
"Vn_D1:n" -7.504752780333714e-14
"Vn_D1:p" 7.504752780333714e-14
"Vn_GND:n" -2.548656910724670e-10
"Vn_GND:p" 2.548656910724670e-10
"Vn_SD:n" 5.107113609844198e-13
"Vn_SD:p" -5.107113609844198e-13
"Vn_VDD:n" 2.544834008446968e-10
"Vn_VDD:p" -2.544834008446968e-10
"Vn_Z:n" 1.557891361950464e-15
"Vn_Z:p" -1.557891361950464e-15
"time" 2.730000000000000e-10
"Vn_D1:v" 0.000000000000000e+00
"Vn_D1:i" 7.521177574831723e-14
"Vn_D1:pwr" 0.000000000000000e+00
"Vn_GND:v" 0.000000000000000e+00
"Vn_GND:i" 2.548665259919260e-10
"Vn_GND:pwr" 0.000000000000000e+00
"Vn_SD:v" 0.000000000000000e+00
"Vn_SD:i" -5.105237331841820e-13
"Vn_SD:pwr" -0.000000000000000e+00
"Vn_VDD:v" 1.200000000000000e+00
"Vn_VDD:i" -2.544866820658243e-10
"Vn_VDD:pwr" -3.053840184789892e-10
"Vn_Z:v" 0.000000000000000e+00
"Vn_Z:i" 5.317785877153093e-16
"Vn_Z:pwr" 0.000000000000000e+00
"n_Z" 1.199999494849843e+00
"n_D1" 0.000000000000000e+00
"n_SD" 1.200000000000000e+00
"Vn_D1:n" -7.521177574831723e-14
"Vn_D1:p" 7.521177574831723e-14
"Vn_GND:n" -2.548665259919260e-10
"Vn_GND:p" 2.548665259919260e-10
"Vn_SD:n" 5.105237331841820e-13
"Vn_SD:p" -5.105237331841820e-13
"Vn_VDD:n" 2.544866820658243e-10
"Vn_VDD:p" -2.544866820658243e-10
"Vn_Z:n" -5.317785877153093e-16
"Vn_Z:p" 5.317785877153093e-16
"time" 5.850000000000002e-10
"Vn_D1:v" 0.000000000000000e+00
"Vn_D1:i" 7.514774042762503e-14
"Vn_D1:pwr" 0.000000000000000e+00
"Vn_GND:v" 0.000000000000000e+00
"Vn_GND:i" 2.548661628247454e-10
"Vn_GND:pwr" 0.000000000000000e+00
"Vn_SD:v" 0.000000000000000e+00
"Vn_SD:i" -5.105976459409411e-13
"Vn_SD:pwr" -0.000000000000000e+00
"Vn_VDD:v" 1.200000000000000e+00
"Vn_VDD:i" -2.544853170026329e-10
"Vn_VDD:pwr" -3.053823804031595e-10
"Vn_Z:v" 0.000000000000000e+00
"Vn_Z:i" -3.197479675993181e-16
"Vn_Z:pwr" -0.000000000000000e+00
"n_Z" 1.199999494856458e+00
"n_D1" 0.000000000000000e+00
"n_SD" 1.200000000000000e+00
"Vn_D1:n" -7.514774042762503e-14
"Vn_D1:p" 7.514774042762503e-14
"Vn_GND:n" -2.548661628247454e-10
"Vn_GND:p" 2.548661628247454e-10
"Vn_SD:n" 5.105976459409411e-13
"Vn_SD:p" -5.105976459409411e-13
"Vn_VDD:n" 2.544853170026329e-10
"Vn_VDD:p" -2.544853170026329e-10
"Vn_Z:n" 3.197479675993181e-16
"Vn_Z:p" -3.197479675993181e-16
"time" 1.209000000000000e-09
"Vn_D1:v" 0.000000000000000e+00
"Vn_D1:i" 7.518917000107551e-14
"Vn_D1:pwr" 0.000000000000000e+00
"Vn_GND:v" 0.000000000000000e+00
"Vn_GND:i" 2.548663581000950e-10
"Vn_GND:pwr" 0.000000000000000e+00
"Vn_SD:v" 0.000000000000000e+00
"Vn_SD:i" -5.105493366233692e-13
"Vn_SD:pwr" -0.000000000000000e+00
"Vn_VDD:v" 1.200000000000000e+00
"Vn_VDD:i" -2.544861883297200e-10
"Vn_VDD:pwr" -3.053834259956640e-10
"Vn_Z:v" 0.000000000000000e+00
"Vn_Z:i" 2.520236736299804e-16
"Vn_Z:pwr" 0.000000000000000e+00
"n_Z" 1.199999494852232e+00
"n_D1" 0.000000000000000e+00
"n_SD" 1.200000000000000e+00
"Vn_D1:n" -7.518917000107551e-14
"Vn_D1:p" 7.518917000107551e-14
"Vn_GND:n" -2.548663581000950e-10
"Vn_GND:p" 2.548663581000950e-10
"Vn_SD:n" 5.105493366233692e-13
"Vn_SD:p" -5.105493366233692e-13
"Vn_VDD:n" 2.544861883297200e-10
"Vn_VDD:p" -2.544861883297200e-10
"Vn_Z:n" -2.520236736299804e-16
"Vn_Z:p" 2.520236736299804e-16
"time" 1.989000000000000e-09
"Vn_D1:v" 0.000000000000000e+00
"Vn_D1:i" 7.515711656901623e-14
"Vn_D1:pwr" 0.000000000000000e+00
"Vn_GND:v" 0.000000000000000e+00
"Vn_GND:i" 2.548661272827823e-10
"Vn_GND:pwr" 0.000000000000000e+00
"Vn_SD:v" 0.000000000000000e+00
"Vn_SD:i" -5.105870556634112e-13
"Vn_SD:pwr" -0.000000000000000e+00
"Vn_VDD:v" 1.200000000000000e+00
"Vn_VDD:i" -2.544854197576484e-10
"Vn_VDD:pwr" -3.053825037091780e-10
"Vn_Z:v" 0.000000000000000e+00
"Vn_Z:i" -2.048454111347151e-16
"Vn_Z:pwr" -0.000000000000000e+00
"n_Z" 1.199999494855912e+00
"n_D1" 0.000000000000000e+00
"n_SD" 1.200000000000000e+00
"Vn_D1:n" -7.515711656901623e-14
"Vn_D1:p" 7.515711656901623e-14
"Vn_GND:n" -2.548661272827823e-10
"Vn_GND:p" 2.548661272827823e-10
"Vn_SD:n" 5.105870556634112e-13
"Vn_SD:p" -5.105870556634112e-13
"Vn_VDD:n" 2.544854197576484e-10
"Vn_VDD:p" -2.544854197576484e-10
"Vn_Z:n" 2.048454111347151e-16
"Vn_Z:p" -2.048454111347151e-16
"time" 2.769000000000001e-09
"Vn_D1:v" 0.000000000000000e+00
"Vn_D1:i" 7.518253744114448e-14
"Vn_D1:pwr" 0.000000000000000e+00
"Vn_GND:v" 0.000000000000000e+00
"Vn_GND:i" 2.548662334389605e-10
"Vn_GND:pwr" 0.000000000000000e+00
"Vn_SD:v" 0.000000000000000e+00
"Vn_SD:i" -5.105568129105619e-13
"Vn_SD:pwr" -0.000000000000000e+00
"Vn_VDD:v" 1.200000000000000e+00
"Vn_VDD:i" -2.544859628038917e-10
"Vn_VDD:pwr" -3.053831553646700e-10
"Vn_Z:v" 0.000000000000000e+00
"Vn_Z:i" 1.710637904741016e-16
"Vn_Z:pwr" 0.000000000000000e+00
"n_Z" 1.199999494853277e+00
"n_D1" 0.000000000000000e+00
"n_SD" 1.200000000000000e+00
"Vn_D1:n" -7.518253744114448e-14
"Vn_D1:p" 7.518253744114448e-14
"Vn_GND:n" -2.548662334389605e-10
"Vn_GND:p" 2.548662334389605e-10
"Vn_SD:n" 5.105568129105619e-13
"Vn_SD:p" -5.105568129105619e-13
"Vn_VDD:n" 2.544859628038917e-10
"Vn_VDD:p" -2.544859628038917e-10
"Vn_Z:n" -1.710637904741016e-16
"Vn_Z:p" 1.710637904741016e-16
"time" 3.000000000000000e-09
"Vn_D1:v" 0.000000000000000e+00
"Vn_D1:i" 7.516675995877208e-14
"Vn_D1:pwr" 0.000000000000000e+00
"Vn_GND:v" 0.000000000000000e+00
"Vn_GND:i" 2.548661167517648e-10
"Vn_GND:pwr" 0.000000000000000e+00
"Vn_SD:v" 0.000000000000000e+00
"Vn_SD:i" -5.105761929897007e-13
"Vn_SD:pwr" -0.000000000000000e+00
"Vn_VDD:v" 1.200000000000000e+00
"Vn_VDD:i" -2.544855537938990e-10
"Vn_VDD:pwr" -3.053826645526788e-10
"Vn_Z:v" 0.000000000000000e+00
"Vn_Z:i" -8.606942472824895e-17
"Vn_Z:pwr" -0.000000000000000e+00
"n_Z" 1.199999494855241e+00
"n_D1" 0.000000000000000e+00
"n_SD" 1.200000000000000e+00
"Vn_D1:n" -7.516675995877208e-14
"Vn_D1:p" 7.516675995877208e-14
"Vn_GND:n" -2.548661167517648e-10
"Vn_GND:p" 2.548661167517648e-10
"Vn_SD:n" 5.105761929897007e-13
"Vn_SD:p" -5.105761929897007e-13
"Vn_VDD:n" 2.544855537938990e-10
"Vn_VDD:p" -2.544855537938990e-10
"Vn_Z:n" 8.606942472824895e-17
"Vn_Z:p" -8.606942472824895e-17
"time" 3.010000000000000e-09
"Vn_D1:v" 0.000000000000000e+00
"Vn_D1:i" 7.516630711085826e-14
"Vn_D1:pwr" 0.000000000000000e+00
"Vn_GND:v" 0.000000000000000e+00
"Vn_GND:i" 2.548661239744761e-10
"Vn_GND:pwr" 0.000000000000000e+00
"Vn_SD:v" 0.000000000000000e+00
"Vn_SD:i" -5.105757716890627e-13
"Vn_SD:pwr" -0.000000000000000e+00
"Vn_VDD:v" 1.200000000000000e+00
"Vn_VDD:i" -2.544855814844619e-10
"Vn_VDD:pwr" -3.053826977813543e-10
"Vn_Z:v" 0.000000000000000e+00
"Vn_Z:i" -6.451185375517498e-17
"Vn_Z:pwr" -0.000000000000000e+00
"n_Z" 1.199999494855112e+00
"n_D1" 0.000000000000000e+00
"n_SD" 1.200000000000000e+00
"Vn_D1:n" -7.516630711085826e-14
"Vn_D1:p" 7.516630711085826e-14
"Vn_GND:n" -2.548661239744761e-10
"Vn_GND:p" 2.548661239744761e-10
"Vn_SD:n" 5.105757716890627e-13
"Vn_SD:p" -5.105757716890627e-13
"Vn_VDD:n" 2.544855814844619e-10
"Vn_VDD:p" -2.544855814844619e-10
"Vn_Z:n" 6.451185375517498e-17
"Vn_Z:p" -6.451185375517498e-17
"time" 3.030000000000000e-09
"Vn_D1:v" 0.000000000000000e+00
"Vn_D1:i" 7.516783240154096e-14
"Vn_D1:pwr" 0.000000000000000e+00
"Vn_GND:v" 0.000000000000000e+00
"Vn_GND:i" 2.548661322307367e-10
"Vn_GND:pwr" 0.000000000000000e+00
"Vn_SD:v" 0.000000000000000e+00
"Vn_SD:i" -5.105741111090243e-13
"Vn_SD:pwr" -0.000000000000000e+00
"Vn_VDD:v" 1.200000000000000e+00
"Vn_VDD:i" -2.544856155075809e-10
"Vn_VDD:pwr" -3.053827386090971e-10
"Vn_Z:v" 0.000000000000000e+00
"Vn_Z:i" -4.189400850969580e-17
"Vn_Z:pwr" -0.000000000000000e+00
"n_Z" 1.199999494854944e+00
"n_D1" 0.000000000000000e+00
"n_SD" 1.200000000000000e+00
"Vn_D1:n" -7.516783240154096e-14
"Vn_D1:p" 7.516783240154096e-14
"Vn_GND:n" -2.548661322307367e-10
"Vn_GND:p" 2.548661322307367e-10
"Vn_SD:n" 5.105741111090243e-13
"Vn_SD:p" -5.105741111090243e-13
"Vn_VDD:n" 2.544856155075809e-10
"Vn_VDD:p" -2.544856155075809e-10
"Vn_Z:n" 4.189400850969580e-17
"Vn_Z:p" -4.189400850969580e-17
"time" 3.070000000000001e-09
"Vn_D1:v" 0.000000000000000e+00
"Vn_D1:i" 7.517002084466145e-14
"Vn_D1:pwr" 0.000000000000000e+00
"Vn_GND:v" 0.000000000000000e+00
"Vn_GND:i" 2.548661412588904e-10
"Vn_GND:pwr" 0.000000000000000e+00
"Vn_SD:v" 0.000000000000000e+00
"Vn_SD:i" -5.105717688314837e-13
"Vn_SD:pwr" -0.000000000000000e+00
"Vn_VDD:v" 1.200000000000000e+00
"Vn_VDD:i" -2.544856630992877e-10
"Vn_VDD:pwr" -3.053827957191452e-10
"Vn_Z:v" 0.000000000000000e+00
"Vn_Z:i" -1.371640542172077e-17
"Vn_Z:pwr" -0.000000000000000e+00
"n_Z" 1.199999494854721e+00
"n_D1" 0.000000000000000e+00
"n_SD" 1.200000000000000e+00
"Vn_D1:n" -7.517002084466145e-14
"Vn_D1:p" 7.517002084466145e-14
"Vn_GND:n" -2.548661412588904e-10
"Vn_GND:p" 2.548661412588904e-10
"Vn_SD:n" 5.105717688314837e-13
"Vn_SD:p" -5.105717688314837e-13
"Vn_VDD:n" 2.544856630992877e-10
"Vn_VDD:p" -2.544856630992877e-10
"Vn_Z:n" 1.371640542172077e-17
"Vn_Z:p" -1.371640542172077e-17
"time" 3.150000000000003e-09
"Vn_D1:v" 0.000000000000000e+00
"Vn_D1:i" 7.517144762349957e-14
"Vn_D1:pwr" 0.000000000000000e+00
"Vn_GND:v" 0.000000000000000e+00
"Vn_GND:i" 2.548661430329831e-10
"Vn_GND:pwr" 0.000000000000000e+00
"Vn_SD:v" 0.000000000000000e+00
"Vn_SD:i" -5.105700325906375e-13
"Vn_SD:pwr" -0.000000000000000e+00
"Vn_VDD:v" 1.200000000000000e+00
"Vn_VDD:i" -2.544856728257285e-10
"Vn_VDD:pwr" -3.053828073908742e-10
"Vn_Z:v" 0.000000000000000e+00
"Vn_Z:i" 3.757735537908640e-18
"Vn_Z:pwr" 0.000000000000000e+00
"n_Z" 1.199999494854642e+00
"n_D1" 0.000000000000000e+00
"n_SD" 1.200000000000000e+00
"Vn_D1:n" -7.517144762349957e-14
"Vn_D1:p" 7.517144762349957e-14
"Vn_GND:n" -2.548661430329831e-10
"Vn_GND:p" 2.548661430329831e-10
"Vn_SD:n" 5.105700325906375e-13
"Vn_SD:p" -5.105700325906375e-13
"Vn_VDD:n" 2.544856728257285e-10
"Vn_VDD:p" -2.544856728257285e-10
"Vn_Z:n" -3.757735537908640e-18
"Vn_Z:p" 3.757735537908640e-18
"time" 3.310000000000005e-09
"Vn_D1:v" 0.000000000000000e+00
"Vn_D1:i" 7.517112474943115e-14
"Vn_D1:pwr" 0.000000000000000e+00
"Vn_GND:v" 0.000000000000000e+00
"Vn_GND:i" 2.548661329491478e-10
"Vn_GND:pwr" 0.000000000000000e+00
"Vn_SD:v" 0.000000000000000e+00
"Vn_SD:i" -5.105705512773155e-13
"Vn_SD:pwr" -0.000000000000000e+00
"Vn_VDD:v" 1.200000000000000e+00
"Vn_VDD:i" -2.544856701109870e-10
"Vn_VDD:pwr" -3.053828041331844e-10
"Vn_Z:v" 0.000000000000000e+00
"Vn_Z:i" -1.276660759547576e-18
"Vn_Z:pwr" -0.000000000000000e+00
"n_Z" 1.199999494854681e+00
"n_D1" 0.000000000000000e+00
"n_SD" 1.200000000000000e+00
"Vn_D1:n" -7.517112474943115e-14
"Vn_D1:p" 7.517112474943115e-14
"Vn_GND:n" -2.548661329491478e-10
"Vn_GND:p" 2.548661329491478e-10
"Vn_SD:n" 5.105705512773155e-13
"Vn_SD:p" -5.105705512773155e-13
"Vn_VDD:n" 2.544856701109870e-10
"Vn_VDD:p" -2.544856701109870e-10
"Vn_Z:n" 1.276660759547576e-18
"Vn_Z:p" -1.276660759547576e-18
"time" 3.630000000000011e-09
"Vn_D1:v" 0.000000000000000e+00
"Vn_D1:i" 7.517143896745635e-14
"Vn_D1:pwr" 0.000000000000000e+00
"Vn_GND:v" 0.000000000000000e+00
"Vn_GND:i" 2.548661148687642e-10
"Vn_GND:pwr" 0.000000000000000e+00
"Vn_SD:v" 0.000000000000000e+00
"Vn_SD:i" -5.105700537838535e-13
"Vn_SD:pwr" -0.000000000000000e+00
"Vn_VDD:v" 1.200000000000000e+00
"Vn_VDD:i" -2.544856503969142e-10
"Vn_VDD:pwr" -3.053827804762970e-10
"Vn_Z:v" 0.000000000000000e+00
"Vn_Z:i" 3.470901812742945e-18
"Vn_Z:pwr" 0.000000000000000e+00
"n_Z" 1.199999494854751e+00
"n_D1" 0.000000000000000e+00
"n_SD" 1.200000000000000e+00
"Vn_D1:n" -7.517143896745635e-14
"Vn_D1:p" 7.517143896745635e-14
"Vn_GND:n" -2.548661148687642e-10
"Vn_GND:p" 2.548661148687642e-10
"Vn_SD:n" 5.105700537838535e-13
"Vn_SD:p" -5.105700537838535e-13
"Vn_VDD:n" 2.544856503969142e-10
"Vn_VDD:p" -2.544856503969142e-10
"Vn_Z:n" -3.470901812742945e-18
"Vn_Z:p" 3.470901812742945e-18
"time" 4.270000000000022e-09
"Vn_D1:v" 0.000000000000000e+00
"Vn_D1:i" 7.517108339047417e-14
"Vn_D1:pwr" 0.000000000000000e+00
"Vn_GND:v" 0.000000000000000e+00
"Vn_GND:i" 2.548660767252579e-10
"Vn_GND:pwr" 0.000000000000000e+00
"Vn_SD:v" 0.000000000000000e+00
"Vn_SD:i" -5.105705889823280e-13
"Vn_SD:pwr" -0.000000000000000e+00
"Vn_VDD:v" 1.200000000000000e+00
"Vn_VDD:i" -2.544856098546765e-10
"Vn_VDD:pwr" -3.053827318256118e-10
"Vn_Z:v" 0.000000000000000e+00
"Vn_Z:i" -6.320090344328891e-19
"Vn_Z:pwr" -0.000000000000000e+00
"n_Z" 1.199999494854933e+00
"n_D1" 0.000000000000000e+00
"n_SD" 1.200000000000000e+00
"Vn_D1:n" -7.517108339047417e-14
"Vn_D1:p" 7.517108339047417e-14
"Vn_GND:n" -2.548660767252579e-10
"Vn_GND:p" 2.548660767252579e-10
"Vn_SD:n" 5.105705889823280e-13
"Vn_SD:p" -5.105705889823280e-13
"Vn_VDD:n" 2.544856098546765e-10
"Vn_VDD:p" -2.544856098546765e-10
"Vn_Z:n" 6.320090344328891e-19
"Vn_Z:p" -6.320090344328891e-19
"time" 5.050000000000022e-09
"Vn_D1:v" 0.000000000000000e+00
"Vn_D1:i" 7.517139305117650e-14
"Vn_D1:pwr" 0.000000000000000e+00
"Vn_GND:v" 0.000000000000000e+00
"Vn_GND:i" 2.548660321229100e-10
"Vn_GND:pwr" 0.000000000000000e+00
"Vn_SD:v" 0.000000000000000e+00
"Vn_SD:i" -5.105701163250333e-13
"Vn_SD:pwr" -0.000000000000000e+00
"Vn_VDD:v" 1.200000000000000e+00
"Vn_VDD:i" -2.544855678679998e-10
"Vn_VDD:pwr" -3.053826814415997e-10
"Vn_Z:v" 0.000000000000000e+00
"Vn_Z:i" 2.844584920091189e-18
"Vn_Z:pwr" 0.000000000000000e+00
"n_Z" 1.199999494855106e+00
"n_D1" 0.000000000000000e+00
"n_SD" 1.200000000000000e+00
"Vn_D1:n" -7.517139305117650e-14
"Vn_D1:p" 7.517139305117650e-14
"Vn_GND:n" -2.548660321229100e-10
"Vn_GND:p" 2.548660321229100e-10
"Vn_SD:n" 5.105701163250333e-13
"Vn_SD:p" -5.105701163250333e-13
"Vn_VDD:n" 2.544855678679998e-10
"Vn_VDD:p" -2.544855678679998e-10
"Vn_Z:n" -2.844584920091189e-18
"Vn_Z:p" 2.844584920091189e-18
"time" 5.830000000000022e-09
"Vn_D1:v" 0.000000000000000e+00
"Vn_D1:i" 7.517112474811006e-14
"Vn_D1:pwr" 0.000000000000000e+00
"Vn_GND:v" 0.000000000000000e+00
"Vn_GND:i" 2.548659865819986e-10
"Vn_GND:pwr" 0.000000000000000e+00
"Vn_SD:v" 0.000000000000000e+00
"Vn_SD:i" -5.105705160287316e-13
"Vn_SD:pwr" -0.000000000000000e+00
"Vn_VDD:v" 1.200000000000000e+00
"Vn_VDD:i" -2.544855181344679e-10
"Vn_VDD:pwr" -3.053826217613614e-10
"Vn_Z:v" 0.000000000000000e+00
"Vn_Z:i" 9.239026527929138e-20
"Vn_Z:pwr" 0.000000000000000e+00
"n_Z" 1.199999494855335e+00
"n_D1" 0.000000000000000e+00
"n_SD" 1.200000000000000e+00
"Vn_D1:n" -7.517112474811006e-14
"Vn_D1:p" 7.517112474811006e-14
"Vn_GND:n" -2.548659865819986e-10
"Vn_GND:p" 2.548659865819986e-10
"Vn_SD:n" 5.105705160287316e-13
"Vn_SD:p" -5.105705160287316e-13
"Vn_VDD:n" 2.544855181344679e-10
"Vn_VDD:p" -2.544855181344679e-10
"Vn_Z:n" -9.239026527929138e-20
"Vn_Z:p" 9.239026527929138e-20
"time" 6.010000000000000e-09
"Vn_D1:v" 0.000000000000000e+00
"Vn_D1:i" 7.517132784108624e-14
"Vn_D1:pwr" 0.000000000000000e+00
"Vn_GND:v" 0.000000000000000e+00
"Vn_GND:i" 2.548659759131282e-10
"Vn_GND:pwr" 0.000000000000000e+00
"Vn_SD:v" 0.000000000000000e+00
"Vn_SD:i" -5.105703105667474e-13
"Vn_SD:pwr" -0.000000000000000e+00
"Vn_VDD:v" 1.200000000000000e+00
"Vn_VDD:i" -2.544855096738073e-10
"Vn_VDD:pwr" -3.053826116085688e-10
"Vn_Z:v" 0.000000000000000e+00
"Vn_Z:i" 1.009974826339963e-18
"Vn_Z:pwr" 0.000000000000000e+00
"n_Z" 1.199999494855355e+00
"n_D1" 0.000000000000000e+00
"n_SD" 1.200000000000000e+00
"Vn_D1:n" -7.517132784108624e-14
"Vn_D1:p" 7.517132784108624e-14
"Vn_GND:n" -2.548659759131282e-10
"Vn_GND:p" 2.548659759131282e-10
"Vn_SD:n" 5.105703105667474e-13
"Vn_SD:p" -5.105703105667474e-13
"Vn_VDD:n" 2.544855096738073e-10
"Vn_VDD:p" -2.544855096738073e-10
"Vn_Z:n" -1.009974826339963e-18
"Vn_Z:p" 1.009974826339963e-18
"time" 6.019999795400000e-09
"Vn_D1:v" 0.000000000000000e+00
"Vn_D1:i" 7.517112043243620e-14
"Vn_D1:pwr" 0.000000000000000e+00
"Vn_GND:v" 0.000000000000000e+00
"Vn_GND:i" 2.548659760498707e-10
"Vn_GND:pwr" 0.000000000000000e+00
"Vn_SD:v" 0.000000000000000e+00
"Vn_SD:i" -5.105702255095924e-13
"Vn_SD:pwr" -0.000000000000000e+00
"Vn_VDD:v" 1.200000000000000e+00
"Vn_VDD:i" -2.544855104910452e-10
"Vn_VDD:pwr" -3.053826125892543e-10
"Vn_Z:v" 0.000000000000000e+00
"Vn_Z:i" 2.021079944156200e-18
"Vn_Z:pwr" 0.000000000000000e+00
"n_Z" 1.199999494855359e+00
"n_D1" 0.000000000000000e+00
"n_SD" 1.200000000000000e+00
"Vn_D1:n" -7.517112043243620e-14
"Vn_D1:p" 7.517112043243620e-14
"Vn_GND:n" -2.548659760498707e-10
"Vn_GND:p" 2.548659760498707e-10
"Vn_SD:n" 5.105702255095924e-13
"Vn_SD:p" -5.105702255095924e-13
"Vn_VDD:n" 2.544855104910452e-10
"Vn_VDD:p" -2.544855104910452e-10
"Vn_Z:n" -2.021079944156200e-18
"Vn_Z:p" 2.021079944156200e-18
"time" 6.020000000000000e-09
"Vn_D1:v" 0.000000000000000e+00
"Vn_D1:i" -1.348174194060675e-06
"Vn_D1:pwr" -0.000000000000000e+00
"Vn_GND:v" 0.000000000000000e+00
"Vn_GND:i" 2.421593928750672e-07
"Vn_GND:pwr" 0.000000000000000e+00
"Vn_SD:v" 0.000000000000000e+00
"Vn_SD:i" 5.440673301278688e-11
"Vn_SD:pwr" 0.000000000000000e+00
"Vn_VDD:v" 1.200000000000000e+00
"Vn_VDD:i" 1.105960117847742e-06
"Vn_VDD:pwr" 1.327152141417290e-06
"Vn_Z:v" 0.000000000000000e+00
"Vn_Z:i" 2.245286969727451e-13
"Vn_Z:pwr" 0.000000000000000e+00
"n_Z" 1.199999494855368e+00
"n_D1" 2.456580613633633e-07
"n_SD" 1.200000000000000e+00
"Vn_D1:n" 1.348174194060675e-06
"Vn_D1:p" -1.348174194060675e-06
"Vn_GND:n" -2.421593928750672e-07
"Vn_GND:p" 2.421593928750672e-07
"Vn_SD:n" -5.440673301278688e-11
"Vn_SD:p" 5.440673301278688e-11
"Vn_VDD:n" -1.105960117847742e-06
"Vn_VDD:p" 1.105960117847742e-06
"Vn_Z:n" -2.245286969727451e-13
"Vn_Z:p" 2.245286969727451e-13
"time" 6.020000409200001e-09
"Vn_D1:v" 0.000000000000000e+00
"Vn_D1:i" -1.349430106291411e-06
"Vn_D1:pwr" -0.000000000000000e+00
"Vn_GND:v" 0.000000000000000e+00
"Vn_GND:i" 2.423764575387223e-07
"Vn_GND:pwr" 0.000000000000000e+00
"Vn_SD:v" 0.000000000000000e+00
"Vn_SD:i" 1.639625075612045e-10
"Vn_SD:pwr" 0.000000000000000e+00
"Vn_VDD:v" 1.200000000000000e+00
"Vn_VDD:i" 1.106888071830497e-06
"Vn_VDD:pwr" 1.328265686196596e-06
"Vn_Z:v" 0.000000000000000e+00
"Vn_Z:i" 1.560617413397246e-12
"Vn_Z:pwr" 0.000000000000000e+00
"n_Z" 1.199999494855496e+00
"n_D1" 7.369741840900898e-07
"n_SD" 1.200000000000000e+00
"Vn_D1:n" 1.349430106291411e-06
"Vn_D1:p" -1.349430106291411e-06
"Vn_GND:n" -2.423764575387223e-07
"Vn_GND:p" 2.423764575387223e-07
"Vn_SD:n" -1.639625075612045e-10
"Vn_SD:p" 1.639625075612045e-10
"Vn_VDD:n" -1.106888071830497e-06
"Vn_VDD:p" 1.106888071830497e-06
"Vn_Z:n" -1.560617413397246e-12
"Vn_Z:p" 1.560617413397246e-12
"time" 6.020001227600002e-09
"Vn_D1:v" 0.000000000000000e+00
"Vn_D1:i" -1.351934667785054e-06
"Vn_D1:pwr" -0.000000000000000e+00
"Vn_GND:v" 0.000000000000000e+00
"Vn_GND:i" 2.428094207960127e-07
"Vn_GND:pwr" 0.000000000000000e+00
"Vn_SD:v" 0.000000000000000e+00
"Vn_SD:i" 3.825224685186954e-10
"Vn_SD:pwr" 0.000000000000000e+00
"Vn_VDD:v" 1.200000000000000e+00
"Vn_VDD:i" 1.108736685297793e-06
"Vn_VDD:pwr" 1.330484022357352e-06
"Vn_Z:v" 0.000000000000000e+00
"Vn_Z:i" 5.985018286149381e-12
"Vn_Z:pwr" 0.000000000000000e+00
"n_Z" 1.199999494856113e+00
"n_D1" 1.719606429543543e-06
"n_SD" 1.200000000000000e+00
"Vn_D1:n" 1.351934667785054e-06
"Vn_D1:p" -1.351934667785054e-06
"Vn_GND:n" -2.428094207960127e-07
"Vn_GND:p" 2.428094207960127e-07
"Vn_SD:n" -3.825224685186954e-10
"Vn_SD:p" 3.825224685186954e-10
"Vn_VDD:n" -1.108736685297793e-06
"Vn_VDD:p" 1.108736685297793e-06
"Vn_Z:n" -5.985018286149381e-12
"Vn_Z:p" 5.985018286149381e-12
"time" 6.020002864400004e-09
"Vn_D1:v" 0.000000000000000e+00
"Vn_D1:i" -1.356900225973399e-06
"Vn_D1:pwr" -0.000000000000000e+00
"Vn_GND:v" 0.000000000000000e+00
"Vn_GND:i" 2.436683805527380e-07
"Vn_GND:pwr" 0.000000000000000e+00
"Vn_SD:v" 0.000000000000000e+00
"Vn_SD:i" 8.163265081607088e-10
"Vn_SD:pwr" 0.000000000000000e+00
"Vn_VDD:v" 1.200000000000000e+00
"Vn_VDD:i" 1.112390371812935e-06
"Vn_VDD:pwr" 1.334868446175522e-06
"Vn_Z:v" 0.000000000000000e+00
"Vn_Z:i" 2.509036139403848e-11
"Vn_Z:pwr" 0.000000000000000e+00
"n_Z" 1.199999494861200e+00
"n_D1" 3.684870920450449e-06
"n_SD" 1.200000000000000e+00
"Vn_D1:n" 1.356900225973399e-06
"Vn_D1:p" -1.356900225973399e-06
"Vn_GND:n" -2.436683805527380e-07
"Vn_GND:p" 2.436683805527380e-07
"Vn_SD:n" -8.163265081607088e-10
"Vn_SD:p" 8.163265081607088e-10
"Vn_VDD:n" -1.112390371812935e-06
"Vn_VDD:p" 1.112390371812935e-06
"Vn_Z:n" -2.509036139403848e-11
"Vn_Z:p" 2.509036139403848e-11
"time" 6.020006138000008e-09
"Vn_D1:v" 0.000000000000000e+00
"Vn_D1:i" -1.366660576045217e-06
"Vn_D1:pwr" -0.000000000000000e+00
"Vn_GND:v" 0.000000000000000e+00
"Vn_GND:i" 2.453587224350203e-07
"Vn_GND:pwr" 0.000000000000000e+00
"Vn_SD:v" 0.000000000000000e+00
"Vn_SD:i" 1.670802513534597e-09
"Vn_SD:pwr" 0.000000000000000e+00
"Vn_VDD:v" 1.200000000000000e+00
"Vn_VDD:i" 1.119529131859146e-06
"Vn_VDD:pwr" 1.343434958230975e-06
"Vn_Z:v" 0.000000000000000e+00
"Vn_Z:i" 1.018666391006124e-10
"Vn_Z:pwr" 0.000000000000000e+00
"n_Z" 1.199999494902760e+00
"n_D1" 7.615399902264261e-06
"n_SD" 1.200000000000000e+00
"Vn_D1:n" 1.366660576045217e-06
"Vn_D1:p" -1.366660576045217e-06
"Vn_GND:n" -2.453587224350203e-07
"Vn_GND:p" 2.453587224350203e-07
"Vn_SD:n" -1.670802513534597e-09
"Vn_SD:p" 1.670802513534597e-09
"Vn_VDD:n" -1.119529131859146e-06
"Vn_VDD:p" 1.119529131859146e-06
"Vn_Z:n" -1.018666391006124e-10
"Vn_Z:p" 1.018666391006124e-10
"time" 6.020012685200016e-09
"Vn_D1:v" 0.000000000000000e+00
"Vn_D1:i" -1.385521109008355e-06
"Vn_D1:pwr" -0.000000000000000e+00
"Vn_GND:v" 0.000000000000000e+00
"Vn_GND:i" 2.486314891077262e-07
"Vn_GND:pwr" 0.000000000000000e+00
"Vn_SD:v" 0.000000000000000e+00
"Vn_SD:i" 3.328267870157968e-09
"Vn_SD:pwr" 0.000000000000000e+00
"Vn_VDD:v" 1.200000000000000e+00
"Vn_VDD:i" 1.133169512584778e-06
"Vn_VDD:pwr" 1.359803415101733e-06
"Vn_Z:v" 0.000000000000000e+00
"Vn_Z:i" 3.917820394904096e-10
"Vn_Z:pwr" 0.000000000000000e+00
"n_Z" 1.199999495225962e+00
"n_D1" 1.547645786589189e-05
"n_SD" 1.200000000000000e+00
"Vn_D1:n" 1.385521109008355e-06
"Vn_D1:p" -1.385521109008355e-06
"Vn_GND:n" -2.486314891077262e-07
"Vn_GND:p" 2.486314891077262e-07
"Vn_SD:n" -3.328267870157968e-09
"Vn_SD:p" 3.328267870157968e-09
"Vn_VDD:n" -1.133169512584778e-06
"Vn_VDD:p" 1.133169512584778e-06
"Vn_Z:n" -3.917820394904096e-10
"Vn_Z:p" 3.917820394904096e-10
"time" 6.020025779600032e-09
"Vn_D1:v" 0.000000000000000e+00
"Vn_D1:i" -1.413780302922403e-06
"Vn_D1:pwr" -0.000000000000000e+00
"Vn_GND:v" 0.000000000000000e+00
"Vn_GND:i" 2.547775218477413e-07
"Vn_GND:pwr" 0.000000000000000e+00
"Vn_SD:v" 0.000000000000000e+00
"Vn_SD:i" 6.446798930810581e-09
"Vn_SD:pwr" 0.000000000000000e+00
"Vn_VDD:v" 1.200000000000000e+00
"Vn_VDD:i" 1.151155632324840e-06
"Vn_VDD:pwr" 1.381386758789808e-06
"Vn_Z:v" 0.000000000000000e+00
"Vn_Z:i" 1.400297371746364e-09
"Vn_Z:pwr" 0.000000000000000e+00
"n_Z" 1.199999497572583e+00
"n_D1" 3.119857379314713e-05
"n_SD" 1.200000000000000e+00
"Vn_D1:n" 1.413780302922403e-06
"Vn_D1:p" -1.413780302922403e-06
"Vn_GND:n" -2.547775218477413e-07
"Vn_GND:p" 2.547775218477413e-07
"Vn_SD:n" -6.446798930810581e-09
"Vn_SD:p" 6.446798930810581e-09
"Vn_VDD:n" -1.151155632324840e-06
"Vn_VDD:p" 1.151155632324840e-06
"Vn_Z:n" -1.400297371746364e-09
"Vn_Z:p" 1.400297371746364e-09
"time" 6.020051968400065e-09
"Vn_D1:v" 0.000000000000000e+00
"Vn_D1:i" -1.463281214718632e-06
"Vn_D1:pwr" -0.000000000000000e+00
"Vn_GND:v" 0.000000000000000e+00
"Vn_GND:i" 2.656456104950839e-07
"Vn_GND:pwr" 0.000000000000000e+00
"Vn_SD:v" 0.000000000000000e+00
"Vn_SD:i" 1.197770362901260e-08
"Vn_SD:pwr" 0.000000000000000e+00
"Vn_VDD:v" 1.200000000000000e+00
"Vn_VDD:i" 1.181171981493746e-06
"Vn_VDD:pwr" 1.417406377792496e-06
"Vn_Z:v" 0.000000000000000e+00
"Vn_Z:i" 4.485861672971279e-09
"Vn_Z:pwr" 0.000000000000000e+00
"n_Z" 1.199999512987727e+00
"n_D1" 6.264280564765764e-05
"n_SD" 1.200000000000000e+00
"Vn_D1:n" 1.463281214718632e-06
"Vn_D1:p" -1.463281214718632e-06
"Vn_GND:n" -2.656456104950839e-07
"Vn_GND:p" 2.656456104950839e-07
"Vn_SD:n" -1.197770362901260e-08
"Vn_SD:p" 1.197770362901260e-08
"Vn_VDD:n" -1.181171981493746e-06
"Vn_VDD:p" 1.181171981493746e-06
"Vn_Z:n" -4.485861672971279e-09
"Vn_Z:p" 4.485861672971279e-09
"time" 6.020104346000130e-09
"Vn_D1:v" 0.000000000000000e+00
"Vn_D1:i" -1.554580346387881e-06
"Vn_D1:pwr" -0.000000000000000e+00
"Vn_GND:v" 0.000000000000000e+00
"Vn_GND:i" 2.826332008928681e-07
"Vn_GND:pwr" 0.000000000000000e+00
"Vn_SD:v" 0.000000000000000e+00
"Vn_SD:i" 2.073907175395679e-08
"Vn_SD:pwr" 0.000000000000000e+00