HEADER
"PSFversion" "1.00"
"simulator" "spectre"
"version" "10.1.1.164.isr11"
"date" "3:01:57 PM, Fri Oct 17, 2014"
"design" "* Spectre Timing Acquisition"
"analysis type" "tran"
"analysis name" "transient1-005_transient1"
"analysis description" "Transient Analysis `transient1-005_transient1': time = (0 s -> 39 ns)"
"xVecSorted" "ascending"
"tolerance.relative" 0.00100000
"start" 0.00000
"outputstart" 0.00000
"stop" 3.90000e-08
"step" 3.90000e-11
"maxstep" 7.80000e-10
"ic" "all"
"useprevic" "no"
"skipdc" "no"
"reltol" 0.00100000
"abstol(V)" 1.00000e-06
"abstol(I)" 1.00000e-12
"temp" 25.0000
"tnom" 27.0000
"tempeffects" "all"
"errpreset" "moderate"
"method" "traponly"
"lteratio" 3.50000
"relref" "sigglobal"
"cmin" 0.00000
"gmin" 1.00000e-12
TYPE
"sweep" FLOAT DOUBLE PROP(
"key" "sweep"
)
"Tau" FLOAT DOUBLE PROP(
"units" "N*m"
"key" "node"
"tolerance" 1.00000e-06
)
"Alpha" FLOAT DOUBLE PROP(
"units" "rads/s^2"
"key" "node"
"tolerance" 1.00000e-06
)
"Omega" FLOAT DOUBLE PROP(
"units" "rads/s"
"key" "node"
"tolerance" 1.00000e-06
)
"Theta" FLOAT DOUBLE PROP(
"units" "rads"
"key" "node"
"tolerance" 1.00000e-06
)
"F" FLOAT DOUBLE PROP(
"units" "N"
"key" "node"
"tolerance" 1.00000e-06
)
"Imp" FLOAT DOUBLE PROP(
"units" "m/s^3"
"key" "node"
"tolerance" 1.00000e-06
)
"Acc" FLOAT DOUBLE PROP(
"units" "m/s^2"
"key" "node"
"tolerance" 1.00000e-06
)
"Vel" FLOAT DOUBLE PROP(
"units" "m/s"
"key" "node"
"tolerance" 1.00000e-06
)
"Pos" FLOAT DOUBLE PROP(
"units" "m"
"key" "node"
"tolerance" 1.00000e-06
)
"Phi" FLOAT DOUBLE PROP(
"units" "Wb"
"key" "node"
"tolerance" 1.00000e-09
)
"Q" FLOAT DOUBLE PROP(
"units" "coul"
"key" "node"
"tolerance" 1.00000e-14
)
"V" FLOAT DOUBLE PROP(
"units" "V"
"key" "node"
"tolerance" 1.00000e-06
)
"I" FLOAT DOUBLE PROP(
"units" "A"
"key" "branch"
"tolerance" 1.00000e-12
)
"MMF" FLOAT DOUBLE PROP(
"units" "A*turn"
"key" "node"
"tolerance" 1.00000e-12
)
"Wb" FLOAT DOUBLE PROP(
"units" "Wb"
"key" "node"
"tolerance" 1.00000e-09
)
"Temp" FLOAT DOUBLE PROP(
"units" "C"
"key" "node"
"tolerance" 0.000100000
)
"Pwr" FLOAT DOUBLE PROP(
"units" "W"
"key" "node"
"tolerance" 1.00000e-09
)
"U" FLOAT DOUBLE PROP(
"units" ""
"key" "node"
"tolerance" 1.00000e-06
)
"V/Sec" FLOAT DOUBLE PROP(
"units" "V/s"
"key" "node"
"tolerance" 0.000100000
)
"I/Sec" FLOAT DOUBLE PROP(
"units" "A/s"
"key" "node"
"tolerance" 1.00000e-06
)
"1/Sec" FLOAT DOUBLE PROP(
"units" "1/s"
"key" "node"
"tolerance" 0.000100000
)
"HOD" FLOAT DOUBLE PROP(
"units" ""
"key" "node"
"tolerance" 0.0100000
)
"A" FLOAT DOUBLE PROP(
"key" "inst"
)
"W" FLOAT DOUBLE PROP(
"key" "inst"
)
SWEEP
"time" "sweep" PROP(
"sweep_direction" 0
"units" "s"
"plot" 0
"grid" 1
)
TRACE
"Vn_D1:v" "V" PROP(
"units" "V"
)
"Vn_D1:i" "A" PROP(
"units" "A"
)
"Vn_D1:pwr" "W" PROP(
"units" "W"
)
"Vn_GND:v" "V" PROP(
"units" "V"
)
"Vn_GND:i" "A" PROP(
"units" "A"
)
"Vn_GND:pwr" "W" PROP(
"units" "W"
)
"Vn_SD:v" "V" PROP(
"units" "V"
)
"Vn_SD:i" "A" PROP(
"units" "A"
)
"Vn_SD:pwr" "W" PROP(
"units" "W"
)
"Vn_VDD:v" "V" PROP(
"units" "V"
)
"Vn_VDD:i" "A" PROP(
"units" "A"
)
"Vn_VDD:pwr" "W" PROP(
"units" "W"
)
"Vn_Z:v" "V" PROP(
"units" "V"
)
"Vn_Z:i" "A" PROP(
"units" "A"
)
"Vn_Z:pwr" "W" PROP(
"units" "W"
)
"n_Z" "V"
"n_D1" "V"
"n_SD" "V"
"Vn_D1:n" "I"
"Vn_D1:p" "I"
"Vn_GND:n" "I"
"Vn_GND:p" "I"
"Vn_SD:n" "I"
"Vn_SD:p" "I"
"Vn_VDD:n" "I"
"Vn_VDD:p" "I"
"Vn_Z:n" "I"
"Vn_Z:p" "I"
VALUE
"time" 0.000000000000000e+00
"Vn_D1:v" 0.000000000000000e+00
"Vn_D1:i" 7.517119452868265e-14
"Vn_D1:pwr" 0.000000000000000e+00
"Vn_GND:v" 0.000000000000000e+00
"Vn_GND:i" 2.548493107913160e-10
"Vn_GND:pwr" 0.000000000000000e+00
"Vn_SD:v" 0.000000000000000e+00
"Vn_SD:i" -5.105704018311278e-13
"Vn_SD:pwr" -0.000000000000000e+00
"Vn_VDD:v" 1.200000000000000e+00
"Vn_VDD:i" -2.544688430803598e-10
"Vn_VDD:pwr" -3.053626116964317e-10
"Vn_Z:v" 0.000000000000000e+00
"Vn_Z:i" 0.000000000000000e+00
"Vn_Z:pwr" 0.000000000000000e+00
"n_Z" 1.199999494927445e+00
"n_D1" 0.000000000000000e+00
"n_SD" 1.200000000000000e+00
"Vn_D1:n" -7.517119452868265e-14
"Vn_D1:p" 7.517119452868265e-14
"Vn_GND:n" -2.548493107913160e-10
"Vn_GND:p" 2.548493107913160e-10
"Vn_SD:n" 5.105704018311278e-13
"Vn_SD:p" -5.105704018311278e-13
"Vn_VDD:n" 2.544688430803598e-10
"Vn_VDD:p" -2.544688430803598e-10
"Vn_Z:n" 0.000000000000000e+00
"Vn_Z:p" 0.000000000000000e+00
"time" 3.900000000000000e-11
"Vn_D1:v" 0.000000000000000e+00
"Vn_D1:i" 7.486572190154700e-14
"Vn_D1:pwr" 0.000000000000000e+00
"Vn_GND:v" 0.000000000000000e+00
"Vn_GND:i" 2.548643621448853e-10
"Vn_GND:pwr" 0.000000000000000e+00
"Vn_SD:v" 0.000000000000000e+00
"Vn_SD:i" -5.109539655390456e-13
"Vn_SD:pwr" -0.000000000000000e+00
"Vn_VDD:v" 1.200000000000000e+00
"Vn_VDD:i" -2.544782074622813e-10
"Vn_VDD:pwr" -3.053738489547375e-10
"Vn_Z:v" 0.000000000000000e+00
"Vn_Z:i" -4.997934627336800e-15
"Vn_Z:pwr" -0.000000000000000e+00
"n_Z" 1.199999494890667e+00
"n_D1" 0.000000000000000e+00
"n_SD" 1.200000000000000e+00
"Vn_D1:n" -7.486572190154700e-14
"Vn_D1:p" 7.486572190154700e-14
"Vn_GND:n" -2.548643621448853e-10
"Vn_GND:p" 2.548643621448853e-10
"Vn_SD:n" 5.109539655390456e-13
"Vn_SD:p" -5.109539655390456e-13
"Vn_VDD:n" 2.544782074622813e-10
"Vn_VDD:p" -2.544782074622813e-10
"Vn_Z:n" 4.997934627336800e-15
"Vn_Z:p" -4.997934627336800e-15
"time" 1.170000000000000e-10
"Vn_D1:v" 0.000000000000000e+00
"Vn_D1:i" 7.504721161829836e-14
"Vn_D1:pwr" 0.000000000000000e+00
"Vn_GND:v" 0.000000000000000e+00
"Vn_GND:i" 2.548656890044039e-10
"Vn_GND:pwr" 0.000000000000000e+00
"Vn_SD:v" 0.000000000000000e+00
"Vn_SD:i" -5.107121903693264e-13
"Vn_SD:pwr" -0.000000000000000e+00
"Vn_VDD:v" 1.200000000000000e+00
"Vn_VDD:i" -2.544832957149469e-10
"Vn_VDD:pwr" -3.053799548579362e-10
"Vn_Z:v" 0.000000000000000e+00
"Vn_Z:i" -1.659789613374090e-15
"Vn_Z:pwr" -0.000000000000000e+00
"n_Z" 1.199999494866240e+00
"n_D1" 0.000000000000000e+00
"n_SD" 1.200000000000000e+00
"Vn_D1:n" -7.504721161829836e-14
"Vn_D1:p" 7.504721161829836e-14
"Vn_GND:n" -2.548656890044039e-10
"Vn_GND:p" 2.548656890044039e-10
"Vn_SD:n" 5.107121903693264e-13
"Vn_SD:p" -5.107121903693264e-13
"Vn_VDD:n" 2.544832957149469e-10
"Vn_VDD:p" -2.544832957149469e-10
"Vn_Z:n" 1.659789613374090e-15
"Vn_Z:p" -1.659789613374090e-15
"time" 2.730000000000000e-10
"Vn_D1:v" 0.000000000000000e+00
"Vn_D1:i" 7.521043145304787e-14
"Vn_D1:pwr" 0.000000000000000e+00
"Vn_GND:v" 0.000000000000000e+00
"Vn_GND:i" 2.548665193772840e-10
"Vn_GND:pwr" 0.000000000000000e+00
"Vn_SD:v" 0.000000000000000e+00
"Vn_SD:i" -5.105252230074127e-13
"Vn_SD:pwr" -0.000000000000000e+00
"Vn_VDD:v" 1.200000000000000e+00
"Vn_VDD:i" -2.544866860953186e-10
"Vn_VDD:pwr" -3.053840233143823e-10
"Vn_Z:v" 0.000000000000000e+00
"Vn_Z:i" 5.466494208387883e-16
"Vn_Z:pwr" 0.000000000000000e+00
"n_Z" 1.199999494849858e+00
"n_D1" 0.000000000000000e+00
"n_SD" 1.200000000000000e+00
"Vn_D1:n" -7.521043145304787e-14
"Vn_D1:p" 7.521043145304787e-14
"Vn_GND:n" -2.548665193772840e-10
"Vn_GND:p" 2.548665193772840e-10
"Vn_SD:n" 5.105252230074127e-13
"Vn_SD:p" -5.105252230074127e-13
"Vn_VDD:n" 2.544866860953186e-10
"Vn_VDD:p" -2.544866860953186e-10
"Vn_Z:n" -5.466494208387883e-16
"Vn_Z:p" 5.466494208387883e-16
"time" 5.850000000000002e-10
"Vn_D1:v" 0.000000000000000e+00
"Vn_D1:i" 7.514883573715919e-14
"Vn_D1:pwr" 0.000000000000000e+00
"Vn_GND:v" 0.000000000000000e+00
"Vn_GND:i" 2.548661683938515e-10
"Vn_GND:pwr" 0.000000000000000e+00
"Vn_SD:v" 0.000000000000000e+00
"Vn_SD:i" -5.105963439749372e-13
"Vn_SD:pwr" -0.000000000000000e+00
"Vn_VDD:v" 1.200000000000000e+00
"Vn_VDD:i" -2.544853280675142e-10
"Vn_VDD:pwr" -3.053823936810171e-10
"Vn_Z:v" 0.000000000000000e+00
"Vn_Z:i" -3.240876855607229e-16
"Vn_Z:pwr" -0.000000000000000e+00
"n_Z" 1.199999494856409e+00
"n_D1" 0.000000000000000e+00
"n_SD" 1.200000000000000e+00
"Vn_D1:n" -7.514883573715919e-14
"Vn_D1:p" 7.514883573715919e-14
"Vn_GND:n" -2.548661683938515e-10
"Vn_GND:p" 2.548661683938515e-10
"Vn_SD:n" 5.105963439749372e-13
"Vn_SD:p" -5.105963439749372e-13
"Vn_VDD:n" 2.544853280675142e-10
"Vn_VDD:p" -2.544853280675142e-10
"Vn_Z:n" 3.240876855607229e-16
"Vn_Z:p" -3.240876855607229e-16
"time" 1.209000000000000e-09
"Vn_D1:v" 0.000000000000000e+00
"Vn_D1:i" 7.518817812040173e-14
"Vn_D1:pwr" 0.000000000000000e+00
"Vn_GND:v" 0.000000000000000e+00
"Vn_GND:i" 2.548663527583903e-10
"Vn_GND:pwr" 0.000000000000000e+00
"Vn_SD:v" 0.000000000000000e+00
"Vn_SD:i" -5.105505781222193e-13
"Vn_SD:pwr" -0.000000000000000e+00
"Vn_VDD:v" 1.200000000000000e+00
"Vn_VDD:i" -2.544861707931768e-10
"Vn_VDD:pwr" -3.053834049518122e-10
"Vn_Z:v" 0.000000000000000e+00
"Vn_Z:i" 2.541635708321523e-16
"Vn_Z:pwr" 0.000000000000000e+00
"n_Z" 1.199999494852293e+00
"n_D1" 0.000000000000000e+00
"n_SD" 1.200000000000000e+00
"Vn_D1:n" -7.518817812040173e-14
"Vn_D1:p" 7.518817812040173e-14
"Vn_GND:n" -2.548663527583903e-10
"Vn_GND:p" 2.548663527583903e-10
"Vn_SD:n" 5.105505781222193e-13
"Vn_SD:p" -5.105505781222193e-13
"Vn_VDD:n" 2.544861707931768e-10
"Vn_VDD:p" -2.544861707931768e-10
"Vn_Z:n" -2.541635708321523e-16
"Vn_Z:p" 2.541635708321523e-16
"time" 1.989000000000000e-09
"Vn_D1:v" 0.000000000000000e+00
"Vn_D1:i" 7.515785816961185e-14
"Vn_D1:pwr" 0.000000000000000e+00
"Vn_GND:v" 0.000000000000000e+00
"Vn_GND:i" 2.548661314331446e-10
"Vn_GND:pwr" 0.000000000000000e+00
"Vn_SD:v" 0.000000000000000e+00
"Vn_SD:i" -5.105860544590422e-13
"Vn_SD:pwr" -0.000000000000000e+00
"Vn_VDD:v" 1.200000000000000e+00
"Vn_VDD:i" -2.544854355963085e-10
"Vn_VDD:pwr" -3.053825227155702e-10
"Vn_Z:v" 0.000000000000000e+00
"Vn_Z:i" -2.056299023045540e-16
"Vn_Z:pwr" -0.000000000000000e+00
"n_Z" 1.199999494855865e+00
"n_D1" 0.000000000000000e+00
"n_SD" 1.200000000000000e+00
"Vn_D1:n" -7.515785816961185e-14
"Vn_D1:p" 7.515785816961185e-14
"Vn_GND:n" -2.548661314331446e-10
"Vn_GND:p" 2.548661314331446e-10
"Vn_SD:n" 5.105860544590422e-13
"Vn_SD:p" -5.105860544590422e-13
"Vn_VDD:n" 2.544854355963085e-10
"Vn_VDD:p" -2.544854355963085e-10
"Vn_Z:n" 2.056299023045540e-16
"Vn_Z:p" -2.056299023045540e-16
"time" 2.769000000000001e-09
"Vn_D1:v" 0.000000000000000e+00
"Vn_D1:i" 7.518192589048453e-14
"Vn_D1:pwr" 0.000000000000000e+00
"Vn_GND:v" 0.000000000000000e+00
"Vn_GND:i" 2.548662297847078e-10
"Vn_GND:pwr" 0.000000000000000e+00
"Vn_SD:v" 0.000000000000000e+00
"Vn_SD:i" -5.105577114574602e-13
"Vn_SD:pwr" -0.000000000000000e+00
"Vn_VDD:v" 1.200000000000000e+00
"Vn_VDD:i" -2.544859498101927e-10
"Vn_VDD:pwr" -3.053831397722313e-10
"Vn_Z:v" 0.000000000000000e+00
"Vn_Z:i" 1.709478794965325e-16
"Vn_Z:pwr" 0.000000000000000e+00
"n_Z" 1.199999494853313e+00
"n_D1" 0.000000000000000e+00
"n_SD" 1.200000000000000e+00
"Vn_D1:n" -7.518192589048453e-14
"Vn_D1:p" 7.518192589048453e-14
"Vn_GND:n" -2.548662297847078e-10
"Vn_GND:p" 2.548662297847078e-10
"Vn_SD:n" 5.105577114574602e-13
"Vn_SD:p" -5.105577114574602e-13
"Vn_VDD:n" 2.544859498101927e-10
"Vn_VDD:p" -2.544859498101927e-10
"Vn_Z:n" -1.709478794965325e-16
"Vn_Z:p" 1.709478794965325e-16
"time" 3.000000000000000e-09
"Vn_D1:v" 0.000000000000000e+00
"Vn_D1:i" 7.516694489960811e-14
"Vn_D1:pwr" 0.000000000000000e+00
"Vn_GND:v" 0.000000000000000e+00
"Vn_GND:i" 2.548661185099199e-10
"Vn_GND:pwr" 0.000000000000000e+00
"Vn_SD:v" 0.000000000000000e+00
"Vn_SD:i" -5.105756915545007e-13
"Vn_SD:pwr" -0.000000000000000e+00
"Vn_VDD:v" 1.200000000000000e+00
"Vn_VDD:i" -2.544855648366377e-10
"Vn_VDD:pwr" -3.053826778039653e-10
"Vn_Z:v" 0.000000000000000e+00
"Vn_Z:i" -8.385523696105128e-17
"Vn_Z:pwr" -0.000000000000000e+00
"n_Z" 1.199999494855210e+00
"n_D1" 0.000000000000000e+00
"n_SD" 1.200000000000000e+00
"Vn_D1:n" -7.516694489960811e-14
"Vn_D1:p" 7.516694489960811e-14
"Vn_GND:n" -2.548661185099199e-10
"Vn_GND:p" 2.548661185099199e-10
"Vn_SD:n" 5.105756915545007e-13
"Vn_SD:p" -5.105756915545007e-13
"Vn_VDD:n" 2.544855648366377e-10
"Vn_VDD:p" -2.544855648366377e-10
"Vn_Z:n" 8.385523696105128e-17
"Vn_Z:p" -8.385523696105128e-17
"time" 3.010000000000000e-09
"Vn_D1:v" 0.000000000000000e+00
"Vn_D1:i" 7.516706400853772e-14
"Vn_D1:pwr" 0.000000000000000e+00
"Vn_GND:v" 0.000000000000000e+00
"Vn_GND:i" 2.548661260513806e-10
"Vn_GND:pwr" 0.000000000000000e+00
"Vn_SD:v" 0.000000000000000e+00
"Vn_SD:i" -5.105753496013502e-13
"Vn_SD:pwr" -0.000000000000000e+00
"Vn_VDD:v" 1.200000000000000e+00
"Vn_VDD:i" -2.544855852041321e-10
"Vn_VDD:pwr" -3.053827022449586e-10
"Vn_Z:v" 0.000000000000000e+00
"Vn_Z:i" -6.403121206986629e-17
"Vn_Z:pwr" -0.000000000000000e+00
"n_Z" 1.199999494855090e+00
"n_D1" 0.000000000000000e+00
"n_SD" 1.200000000000000e+00
"Vn_D1:n" -7.516706400853772e-14
"Vn_D1:p" 7.516706400853772e-14
"Vn_GND:n" -2.548661260513806e-10
"Vn_GND:p" 2.548661260513806e-10
"Vn_SD:n" 5.105753496013502e-13
"Vn_SD:p" -5.105753496013502e-13
"Vn_VDD:n" 2.544855852041321e-10
"Vn_VDD:p" -2.544855852041321e-10
"Vn_Z:n" 6.403121206986629e-17
"Vn_Z:p" -6.403121206986629e-17
"time" 3.030000000000000e-09
"Vn_D1:v" 0.000000000000000e+00
"Vn_D1:i" 7.516812093748194e-14
"Vn_D1:pwr" 0.000000000000000e+00
"Vn_GND:v" 0.000000000000000e+00
"Vn_GND:i" 2.548661333484415e-10
"Vn_GND:pwr" 0.000000000000000e+00
"Vn_SD:v" 0.000000000000000e+00
"Vn_SD:i" -5.105738603241509e-13
"Vn_SD:pwr" -0.000000000000000e+00
"Vn_VDD:v" 1.200000000000000e+00
"Vn_VDD:i" -2.544856173912671e-10
"Vn_VDD:pwr" -3.053827408695206e-10
"Vn_Z:v" 0.000000000000000e+00
"Vn_Z:i" -4.170297629133214e-17
"Vn_Z:pwr" -0.000000000000000e+00
"n_Z" 1.199999494854932e+00
"n_D1" 0.000000000000000e+00
"n_SD" 1.200000000000000e+00
"Vn_D1:n" -7.516812093748194e-14
"Vn_D1:p" 7.516812093748194e-14
"Vn_GND:n" -2.548661333484415e-10
"Vn_GND:p" 2.548661333484415e-10
"Vn_SD:n" 5.105738603241509e-13
"Vn_SD:p" -5.105738603241509e-13
"Vn_VDD:n" 2.544856173912671e-10
"Vn_VDD:p" -2.544856173912671e-10
"Vn_Z:n" 4.170297629133214e-17
"Vn_Z:p" -4.170297629133214e-17
"time" 3.070000000000001e-09
"Vn_D1:v" 0.000000000000000e+00
"Vn_D1:i" 7.517006210136835e-14
"Vn_D1:pwr" 0.000000000000000e+00
"Vn_GND:v" 0.000000000000000e+00
"Vn_GND:i" 2.548661416165833e-10
"Vn_GND:pwr" 0.000000000000000e+00
"Vn_SD:v" 0.000000000000000e+00
"Vn_SD:i" -5.105717701224982e-13
"Vn_SD:pwr" -0.000000000000000e+00
"Vn_VDD:v" 1.200000000000000e+00
"Vn_VDD:i" -2.544856631921362e-10
"Vn_VDD:pwr" -3.053827958305634e-10
"Vn_Z:v" 0.000000000000000e+00
"Vn_Z:i" -1.375757482275762e-17
"Vn_Z:pwr" -0.000000000000000e+00
"n_Z" 1.199999494854723e+00
"n_D1" 0.000000000000000e+00
"n_SD" 1.200000000000000e+00
"Vn_D1:n" -7.517006210136835e-14
"Vn_D1:p" 7.517006210136835e-14
"Vn_GND:n" -2.548661416165833e-10
"Vn_GND:p" 2.548661416165833e-10
"Vn_SD:n" 5.105717701224982e-13
"Vn_SD:p" -5.105717701224982e-13
"Vn_VDD:n" 2.544856631921362e-10
"Vn_VDD:p" -2.544856631921362e-10
"Vn_Z:n" 1.375757482275762e-17
"Vn_Z:p" -1.375757482275762e-17
"time" 3.150000000000003e-09
"Vn_D1:v" 0.000000000000000e+00
"Vn_D1:i" 7.517148433415303e-14
"Vn_D1:pwr" 0.000000000000000e+00
"Vn_GND:v" 0.000000000000000e+00
"Vn_GND:i" 2.548661433458585e-10
"Vn_GND:pwr" 0.000000000000000e+00
"Vn_SD:v" 0.000000000000000e+00
"Vn_SD:i" -5.105698605589672e-13
"Vn_SD:pwr" -0.000000000000000e+00
"Vn_VDD:v" 1.200000000000000e+00
"Vn_VDD:i" -2.544856725053665e-10
"Vn_VDD:pwr" -3.053828070064398e-10
"Vn_Z:v" 0.000000000000000e+00
"Vn_Z:i" 3.414974099946347e-18
"Vn_Z:pwr" 0.000000000000000e+00
"n_Z" 1.199999494854645e+00
"n_D1" 0.000000000000000e+00
"n_SD" 1.200000000000000e+00
"Vn_D1:n" -7.517148433415303e-14
"Vn_D1:p" 7.517148433415303e-14
"Vn_GND:n" -2.548661433458585e-10
"Vn_GND:p" 2.548661433458585e-10
"Vn_SD:n" 5.105698605589672e-13
"Vn_SD:p" -5.105698605589672e-13
"Vn_VDD:n" 2.544856725053665e-10
"Vn_VDD:p" -2.544856725053665e-10
"Vn_Z:n" -3.414974099946347e-18
"Vn_Z:p" 3.414974099946347e-18
"time" 3.310000000000005e-09
"Vn_D1:v" 0.000000000000000e+00
"Vn_D1:i" 7.517123053232101e-14
"Vn_D1:pwr" 0.000000000000000e+00
"Vn_GND:v" 0.000000000000000e+00
"Vn_GND:i" 2.548661332959177e-10
"Vn_GND:pwr" 0.000000000000000e+00
"Vn_SD:v" 0.000000000000000e+00
"Vn_SD:i" -5.105706319822645e-13
"Vn_SD:pwr" -0.000000000000000e+00
"Vn_VDD:v" 1.200000000000000e+00
"Vn_VDD:i" -2.544856697839482e-10
"Vn_VDD:pwr" -3.053828037407379e-10
"Vn_Z:v" 0.000000000000000e+00
"Vn_Z:i" -5.513611005263453e-19
"Vn_Z:pwr" -0.000000000000000e+00
"n_Z" 1.199999494854688e+00
"n_D1" 0.000000000000000e+00
"n_SD" 1.200000000000000e+00
"Vn_D1:n" -7.517123053232101e-14
"Vn_D1:p" 7.517123053232101e-14
"Vn_GND:n" -2.548661332959177e-10
"Vn_GND:p" 2.548661332959177e-10
"Vn_SD:n" 5.105706319822645e-13
"Vn_SD:p" -5.105706319822645e-13
"Vn_VDD:n" 2.544856697839482e-10
"Vn_VDD:p" -2.544856697839482e-10
"Vn_Z:n" 5.513611005263453e-19
"Vn_Z:p" -5.513611005263453e-19
"time" 3.630000000000011e-09
"Vn_D1:v" 0.000000000000000e+00
"Vn_D1:i" 7.517133961319886e-14
"Vn_D1:pwr" 0.000000000000000e+00
"Vn_GND:v" 0.000000000000000e+00
"Vn_GND:i" 2.548661146469073e-10
"Vn_GND:pwr" 0.000000000000000e+00
"Vn_SD:v" 0.000000000000000e+00
"Vn_SD:i" -5.105699164505969e-13
"Vn_SD:pwr" -0.000000000000000e+00
"Vn_VDD:v" 1.200000000000000e+00
"Vn_VDD:i" -2.544856417155189e-10
"Vn_VDD:pwr" -3.053827700586226e-10
"Vn_Z:v" 0.000000000000000e+00
"Vn_Z:i" 3.201341049138992e-18
"Vn_Z:pwr" 0.000000000000000e+00
"n_Z" 1.199999494854768e+00
"n_D1" 0.000000000000000e+00
"n_SD" 1.200000000000000e+00
"Vn_D1:n" -7.517133961319886e-14
"Vn_D1:p" 7.517133961319886e-14
"Vn_GND:n" -2.548661146469073e-10
"Vn_GND:p" 2.548661146469073e-10
"Vn_SD:n" 5.105699164505969e-13
"Vn_SD:p" -5.105699164505969e-13
"Vn_VDD:n" 2.544856417155189e-10
"Vn_VDD:p" -2.544856417155189e-10
"Vn_Z:n" -3.201341049138992e-18
"Vn_Z:p" 3.201341049138992e-18
"time" 4.270000000000022e-09
"Vn_D1:v" 0.000000000000000e+00
"Vn_D1:i" 7.517114773389775e-14
"Vn_D1:pwr" 0.000000000000000e+00
"Vn_GND:v" 0.000000000000000e+00
"Vn_GND:i" 2.548660767873938e-10
"Vn_GND:pwr" 0.000000000000000e+00
"Vn_SD:v" 0.000000000000000e+00
"Vn_SD:i" -5.105707858449423e-13
"Vn_SD:pwr" -0.000000000000000e+00
"Vn_VDD:v" 1.200000000000000e+00
"Vn_VDD:i" -2.544856181855786e-10
"Vn_VDD:pwr" -3.053827418226943e-10
"Vn_Z:v" 0.000000000000000e+00
"Vn_Z:i" -7.050596141628485e-19
"Vn_Z:pwr" -0.000000000000000e+00
"n_Z" 1.199999494854919e+00
"n_D1" 0.000000000000000e+00
"n_SD" 1.200000000000000e+00
"Vn_D1:n" -7.517114773389775e-14
"Vn_D1:p" 7.517114773389775e-14
"Vn_GND:n" -2.548660767873938e-10
"Vn_GND:p" 2.548660767873938e-10
"Vn_SD:n" 5.105707858449423e-13
"Vn_SD:p" -5.105707858449423e-13
"Vn_VDD:n" 2.544856181855786e-10
"Vn_VDD:p" -2.544856181855786e-10
"Vn_Z:n" 7.050596141628485e-19
"Vn_Z:p" -7.050596141628485e-19
"time" 5.050000000000022e-09
"Vn_D1:v" 0.000000000000000e+00
"Vn_D1:i" 7.517143095598965e-14
"Vn_D1:pwr" 0.000000000000000e+00
"Vn_GND:v" 0.000000000000000e+00
"Vn_GND:i" 2.548660327389551e-10
"Vn_GND:pwr" 0.000000000000000e+00
"Vn_SD:v" 0.000000000000000e+00
"Vn_SD:i" -5.105697829579842e-13
"Vn_SD:pwr" -0.000000000000000e+00
"Vn_VDD:v" 1.200000000000000e+00
"Vn_VDD:i" -2.544855638591252e-10
"Vn_VDD:pwr" -3.053826766309503e-10
"Vn_Z:v" 0.000000000000000e+00
"Vn_Z:i" 3.274522732016073e-18
"Vn_Z:pwr" 0.000000000000000e+00
"n_Z" 1.199999494855108e+00
"n_D1" 0.000000000000000e+00
"n_SD" 1.200000000000000e+00
"Vn_D1:n" -7.517143095598965e-14
"Vn_D1:p" 7.517143095598965e-14
"Vn_GND:n" -2.548660327389551e-10
"Vn_GND:p" 2.548660327389551e-10
"Vn_SD:n" 5.105697829579842e-13
"Vn_SD:p" -5.105697829579842e-13
"Vn_VDD:n" 2.544855638591252e-10
"Vn_VDD:p" -2.544855638591252e-10
"Vn_Z:n" -3.274522732016073e-18
"Vn_Z:p" 3.274522732016073e-18
"time" 5.830000000000022e-09
"Vn_D1:v" 0.000000000000000e+00
"Vn_D1:i" 7.517117007976447e-14
"Vn_D1:pwr" 0.000000000000000e+00
"Vn_GND:v" 0.000000000000000e+00
"Vn_GND:i" 2.548659864208088e-10
"Vn_GND:pwr" 0.000000000000000e+00
"Vn_SD:v" 0.000000000000000e+00
"Vn_SD:i" -5.105707840352744e-13
"Vn_SD:pwr" -0.000000000000000e+00
"Vn_VDD:v" 1.200000000000000e+00
"Vn_VDD:i" -2.544855274415259e-10
"Vn_VDD:pwr" -3.053826329298311e-10
"Vn_Z:v" 0.000000000000000e+00
"Vn_Z:i" -4.640471448170698e-19
"Vn_Z:pwr" -0.000000000000000e+00
"n_Z" 1.199999494855314e+00
"n_D1" 0.000000000000000e+00
"n_SD" 1.200000000000000e+00
"Vn_D1:n" -7.517117007976447e-14
"Vn_D1:p" 7.517117007976447e-14
"Vn_GND:n" -2.548659864208088e-10
"Vn_GND:p" 2.548659864208088e-10
"Vn_SD:n" 5.105707840352744e-13
"Vn_SD:p" -5.105707840352744e-13
"Vn_VDD:n" 2.544855274415259e-10
"Vn_VDD:p" -2.544855274415259e-10
"Vn_Z:n" 4.640471448170698e-19
"Vn_Z:p" -4.640471448170698e-19
"time" 6.010000000000000e-09
"Vn_D1:v" 0.000000000000000e+00
"Vn_D1:i" 7.517126514103878e-14
"Vn_D1:pwr" 0.000000000000000e+00
"Vn_GND:v" 0.000000000000000e+00
"Vn_GND:i" 2.548659764366603e-10
"Vn_GND:pwr" 0.000000000000000e+00
"Vn_SD:v" 0.000000000000000e+00
"Vn_SD:i" -5.105698418720196e-13
"Vn_SD:pwr" -0.000000000000000e+00
"Vn_VDD:v" 1.200000000000000e+00
"Vn_VDD:i" -2.544855034097482e-10
"Vn_VDD:pwr" -3.053826040916978e-10
"Vn_Z:v" 0.000000000000000e+00
"Vn_Z:i" 2.841973642238925e-18
"Vn_Z:pwr" 0.000000000000000e+00
"n_Z" 1.199999494855355e+00
"n_D1" 0.000000000000000e+00
"n_SD" 1.200000000000000e+00
"Vn_D1:n" -7.517126514103878e-14
"Vn_D1:p" 7.517126514103878e-14
"Vn_GND:n" -2.548659764366603e-10
"Vn_GND:p" 2.548659764366603e-10
"Vn_SD:n" 5.105698418720196e-13
"Vn_SD:p" -5.105698418720196e-13
"Vn_VDD:n" 2.544855034097482e-10
"Vn_VDD:p" -2.544855034097482e-10
"Vn_Z:n" -2.841973642238925e-18
"Vn_Z:p" 2.841973642238925e-18
"time" 6.019999795400000e-09
"Vn_D1:v" 0.000000000000000e+00
"Vn_D1:i" 7.517143879705288e-14
"Vn_D1:pwr" 0.000000000000000e+00
"Vn_GND:v" 0.000000000000000e+00
"Vn_GND:i" 2.548659761848455e-10
"Vn_GND:pwr" 0.000000000000000e+00
"Vn_SD:v" 0.000000000000000e+00
"Vn_SD:i" -5.105705116720067e-13
"Vn_SD:pwr" -0.000000000000000e+00
"Vn_VDD:v" 1.200000000000000e+00
"Vn_VDD:i" -2.544855104997160e-10
"Vn_VDD:pwr" -3.053826125996592e-10
"Vn_Z:v" 0.000000000000000e+00
"Vn_Z:i" 1.802275604121804e-18
"Vn_Z:pwr" 0.000000000000000e+00
"n_Z" 1.199999494855358e+00
"n_D1" 0.000000000000000e+00
"n_SD" 1.200000000000000e+00
"Vn_D1:n" -7.517143879705288e-14
"Vn_D1:p" 7.517143879705288e-14
"Vn_GND:n" -2.548659761848455e-10
"Vn_GND:p" 2.548659761848455e-10
"Vn_SD:n" 5.105705116720067e-13
"Vn_SD:p" -5.105705116720067e-13
"Vn_VDD:n" 2.544855104997160e-10
"Vn_VDD:p" -2.544855104997160e-10
"Vn_Z:n" -1.802275604121804e-18
"Vn_Z:p" 1.802275604121804e-18
"time" 6.020000000000000e-09
"Vn_D1:v" 0.000000000000000e+00
"Vn_D1:i" -1.348174194059866e-06
"Vn_D1:pwr" -0.000000000000000e+00
"Vn_GND:v" 0.000000000000000e+00
"Vn_GND:i" 2.421593929007947e-07
"Vn_GND:pwr" 0.000000000000000e+00
"Vn_SD:v" 0.000000000000000e+00
"Vn_SD:i" 5.440667074687909e-11
"Vn_SD:pwr" 0.000000000000000e+00
"Vn_VDD:v" 1.200000000000000e+00
"Vn_VDD:i" 1.105960116148751e-06
"Vn_VDD:pwr" 1.327152139378501e-06
"Vn_Z:v" 0.000000000000000e+00
"Vn_Z:i" 2.245460407354777e-13
"Vn_Z:pwr" 0.000000000000000e+00
"n_Z" 1.199999494855366e+00
"n_D1" 2.456580613633633e-07
"n_SD" 1.200000000000000e+00
"Vn_D1:n" 1.348174194059866e-06
"Vn_D1:p" -1.348174194059866e-06
"Vn_GND:n" -2.421593929007947e-07
"Vn_GND:p" 2.421593929007947e-07
"Vn_SD:n" -5.440667074687909e-11
"Vn_SD:p" 5.440667074687909e-11
"Vn_VDD:n" -1.105960116148751e-06
"Vn_VDD:p" 1.105960116148751e-06
"Vn_Z:n" -2.245460407354777e-13
"Vn_Z:p" 2.245460407354777e-13
"time" 6.020000409200001e-09
"Vn_D1:v" 0.000000000000000e+00
"Vn_D1:i" -1.349430107773932e-06
"Vn_D1:pwr" -0.000000000000000e+00
"Vn_GND:v" 0.000000000000000e+00
"Vn_GND:i" 2.423764600314118e-07
"Vn_GND:pwr" 0.000000000000000e+00
"Vn_SD:v" 0.000000000000000e+00
"Vn_SD:i" 1.639631306838553e-10
"Vn_SD:pwr" 0.000000000000000e+00
"Vn_VDD:v" 1.200000000000000e+00
"Vn_VDD:i" 1.106888071565607e-06
"Vn_VDD:pwr" 1.328265685878728e-06
"Vn_Z:v" 0.000000000000000e+00
"Vn_Z:i" 1.560878349703512e-12
"Vn_Z:pwr" 0.000000000000000e+00
"n_Z" 1.199999494855487e+00
"n_D1" 7.369741840900898e-07
"n_SD" 1.200000000000000e+00
"Vn_D1:n" 1.349430107773932e-06
"Vn_D1:p" -1.349430107773932e-06
"Vn_GND:n" -2.423764600314118e-07
"Vn_GND:p" 2.423764600314118e-07
"Vn_SD:n" -1.639631306838553e-10
"Vn_SD:p" 1.639631306838553e-10
"Vn_VDD:n" -1.106888071565607e-06
"Vn_VDD:p" 1.106888071565607e-06
"Vn_Z:n" -1.560878349703512e-12
"Vn_Z:p" 1.560878349703512e-12
"time" 6.020001227600002e-09
"Vn_D1:v" 0.000000000000000e+00
"Vn_D1:i" -1.351934667147123e-06
"Vn_D1:pwr" -0.000000000000000e+00
"Vn_GND:v" 0.000000000000000e+00
"Vn_GND:i" 2.428094142243749e-07
"Vn_GND:pwr" 0.000000000000000e+00
"Vn_SD:v" 0.000000000000000e+00
"Vn_SD:i" 3.825238073727300e-10
"Vn_SD:pwr" 0.000000000000000e+00
"Vn_VDD:v" 1.200000000000000e+00
"Vn_VDD:i" 1.108736685173062e-06
"Vn_VDD:pwr" 1.330484022207675e-06
"Vn_Z:v" 0.000000000000000e+00
"Vn_Z:i" 5.986447969908961e-12
"Vn_Z:pwr" 0.000000000000000e+00
"n_Z" 1.199999494856070e+00
"n_D1" 1.719606429543543e-06
"n_SD" 1.200000000000000e+00
"Vn_D1:n" 1.351934667147123e-06
"Vn_D1:p" -1.351934667147123e-06
"Vn_GND:n" -2.428094142243749e-07
"Vn_GND:p" 2.428094142243749e-07
"Vn_SD:n" -3.825238073727300e-10
"Vn_SD:p" 3.825238073727300e-10
"Vn_VDD:n" -1.108736685173062e-06
"Vn_VDD:p" 1.108736685173062e-06
"Vn_Z:n" -5.986447969908961e-12
"Vn_Z:p" 5.986447969908961e-12
"time" 6.020002864400004e-09
"Vn_D1:v" 0.000000000000000e+00
"Vn_D1:i" -1.356900226537938e-06
"Vn_D1:pwr" -0.000000000000000e+00
"Vn_GND:v" 0.000000000000000e+00
"Vn_GND:i" 2.436683834079771e-07
"Vn_GND:pwr" 0.000000000000000e+00
"Vn_SD:v" 0.000000000000000e+00
"Vn_SD:i" 8.163241355739539e-10
"Vn_SD:pwr" 0.000000000000000e+00
"Vn_VDD:v" 1.200000000000000e+00
"Vn_VDD:i" 1.112390364476625e-06
"Vn_VDD:pwr" 1.334868437371950e-06
"Vn_Z:v" 0.000000000000000e+00
"Vn_Z:i" 2.510138629739947e-11
"Vn_Z:pwr" 0.000000000000000e+00
"n_Z" 1.199999494860870e+00
"n_D1" 3.684870920450449e-06
"n_SD" 1.200000000000000e+00
"Vn_D1:n" 1.356900226537938e-06
"Vn_D1:p" -1.356900226537938e-06
"Vn_GND:n" -2.436683834079771e-07
"Vn_GND:p" 2.436683834079771e-07
"Vn_SD:n" -8.163241355739539e-10
"Vn_SD:p" 8.163241355739539e-10
"Vn_VDD:n" -1.112390364476625e-06
"Vn_VDD:p" 1.112390364476625e-06
"Vn_Z:n" -2.510138629739947e-11
"Vn_Z:p" 2.510138629739947e-11
"time" 6.020006138000008e-09
"Vn_D1:v" 0.000000000000000e+00
"Vn_D1:i" -1.366660575359627e-06
"Vn_D1:pwr" -0.000000000000000e+00
"Vn_GND:v" 0.000000000000000e+00
"Vn_GND:i" 2.453586868659769e-07
"Vn_GND:pwr" 0.000000000000000e+00
"Vn_SD:v" 0.000000000000000e+00
"Vn_SD:i" 1.670792863220603e-09
"Vn_SD:pwr" 0.000000000000000e+00
"Vn_VDD:v" 1.200000000000000e+00
"Vn_VDD:i" 1.119529083432722e-06
"Vn_VDD:pwr" 1.343434900119266e-06
"Vn_Z:v" 0.000000000000000e+00
"Vn_Z:i" 1.019548157912527e-10
"Vn_Z:pwr" 0.000000000000000e+00
"n_Z" 1.199999494900109e+00
"n_D1" 7.615399902264261e-06
"n_SD" 1.200000000000000e+00
"Vn_D1:n" 1.366660575359627e-06
"Vn_D1:p" -1.366660575359627e-06
"Vn_GND:n" -2.453586868659769e-07
"Vn_GND:p" 2.453586868659769e-07
"Vn_SD:n" -1.670792863220603e-09
"Vn_SD:p" 1.670792863220603e-09
"Vn_VDD:n" -1.119529083432722e-06
"Vn_VDD:p" 1.119529083432722e-06
"Vn_Z:n" -1.019548157912527e-10
"Vn_Z:p" 1.019548157912527e-10
"time" 6.020012685200016e-09
"Vn_D1:v" 0.000000000000000e+00
"Vn_D1:i" -1.385521109609801e-06
"Vn_D1:pwr" -0.000000000000000e+00
"Vn_GND:v" 0.000000000000000e+00
"Vn_GND:i" 2.486312828283791e-07
"Vn_GND:pwr" 0.000000000000000e+00
"Vn_SD:v" 0.000000000000000e+00
"Vn_SD:i" 3.328185273171040e-09
"Vn_SD:pwr" 0.000000000000000e+00
"Vn_VDD:v" 1.200000000000000e+00
"Vn_VDD:i" 1.133169138667619e-06
"Vn_VDD:pwr" 1.359802966401142e-06
"Vn_Z:v" 0.000000000000000e+00
"Vn_Z:i" 3.924504394318037e-10
"Vn_Z:pwr" 0.000000000000000e+00
"n_Z" 1.199999495205484e+00
"n_D1" 1.547645786589189e-05
"n_SD" 1.200000000000000e+00
"Vn_D1:n" 1.385521109609801e-06
"Vn_D1:p" -1.385521109609801e-06
"Vn_GND:n" -2.486312828283791e-07
"Vn_GND:p" 2.486312828283791e-07
"Vn_SD:n" -3.328185273171040e-09
"Vn_SD:p" 3.328185273171040e-09
"Vn_VDD:n" -1.133169138667619e-06
"Vn_VDD:p" 1.133169138667619e-06
"Vn_Z:n" -3.924504394318037e-10
"Vn_Z:p" 3.924504394318037e-10
"time" 6.020025779600032e-09
"Vn_D1:v" 0.000000000000000e+00
"Vn_D1:i" -1.413780303537598e-06
"Vn_D1:pwr" -0.000000000000000e+00
"Vn_GND:v" 0.000000000000000e+00
"Vn_GND:i" 2.547760633091780e-07
"Vn_GND:pwr" 0.000000000000000e+00
"Vn_SD:v" 0.000000000000000e+00
"Vn_SD:i" 6.446232272717880e-09
"Vn_SD:pwr" 0.000000000000000e+00
"Vn_VDD:v" 1.200000000000000e+00
"Vn_VDD:i" 1.151153039660344e-06
"Vn_VDD:pwr" 1.381383647592413e-06
"Vn_Z:v" 0.000000000000000e+00
"Vn_Z:i" 1.404910756503788e-09
"Vn_Z:pwr" 0.000000000000000e+00
"n_Z" 1.199999497425801e+00
"n_D1" 3.119857379314713e-05
"n_SD" 1.200000000000000e+00
"Vn_D1:n" 1.413780303537598e-06
"Vn_D1:p" -1.413780303537598e-06
"Vn_GND:n" -2.547760633091780e-07
"Vn_GND:p" 2.547760633091780e-07
"Vn_SD:n" -6.446232272717880e-09
"Vn_SD:p" 6.446232272717880e-09
"Vn_VDD:n" -1.151153039660344e-06
"Vn_VDD:p" 1.151153039660344e-06
"Vn_Z:n" -1.404910756503788e-09
"Vn_Z:p" 1.404910756503788e-09
"time" 6.020051968400065e-09
"Vn_D1:v" 0.000000000000000e+00
"Vn_D1:i" -1.463281225193776e-06
"Vn_D1:pwr" -0.000000000000000e+00
"Vn_GND:v" 0.000000000000000e+00
"Vn_GND:i" 2.656372442045900e-07
"Vn_GND:pwr" 0.000000000000000e+00
"Vn_SD:v" 0.000000000000000e+00
"Vn_SD:i" 1.197428101951040e-08
"Vn_SD:pwr" 0.000000000000000e+00
"Vn_VDD:v" 1.200000000000000e+00
"Vn_VDD:i" 1.181156312405306e-06
"Vn_VDD:pwr" 1.417387574886368e-06
"Vn_Z:v" 0.000000000000000e+00
"Vn_Z:i" 4.513335305682489e-09
"Vn_Z:pwr" 0.000000000000000e+00
"n_Z" 1.199999512047665e+00
"n_D1" 6.264280564765764e-05
"n_SD" 1.200000000000000e+00
"Vn_D1:n" 1.463281225193776e-06
"Vn_D1:p" -1.463281225193776e-06
"Vn_GND:n" -2.656372442045900e-07
"Vn_GND:p" 2.656372442045900e-07
"Vn_SD:n" -1.197428101951040e-08
"Vn_SD:p" 1.197428101951040e-08
"Vn_VDD:n" -1.181156312405306e-06
"Vn_VDD:p" 1.181156312405306e-06
"Vn_Z:n" -4.513335305682489e-09
"Vn_Z:p" 4.513335305682489e-09
"time" 6.020104346000130e-09
"Vn_D1:v" 0.000000000000000e+00
"Vn_D1:i" -1.554580409322084e-06
"Vn_D1:pwr" -0.000000000000000e+00
"Vn_GND:v" 0.000000000000000e+00
"Vn_GND:i" 2.825957848659298e-07
"Vn_GND:pwr" 0.000000000000000e+00
"Vn_SD:v" 0.000000000000000e+00
"Vn_SD:i" 2.072257695911514e-08