HEADER
"PSFversion" "1.00"
"simulator" "spectre"
"version" "10.1.1.164.isr11"
"date" "3:01:57 PM, Fri Oct 17, 2014"
"design" "* Spectre Timing Acquisition"
"analysis type" "tran"
"analysis name" "transient1-012_transient1"
"analysis description" "Transient Analysis `transient1-012_transient1': time = (0 s -> 39 ns)"
"xVecSorted" "ascending"
"tolerance.relative" 0.00100000
"start" 0.00000
"outputstart" 0.00000
"stop" 3.90000e-08
"step" 3.90000e-11
"maxstep" 7.80000e-10
"ic" "all"
"useprevic" "no"
"skipdc" "no"
"reltol" 0.00100000
"abstol(V)" 1.00000e-06
"abstol(I)" 1.00000e-12
"temp" 25.0000
"tnom" 27.0000
"tempeffects" "all"
"errpreset" "moderate"
"method" "traponly"
"lteratio" 3.50000
"relref" "sigglobal"
"cmin" 0.00000
"gmin" 1.00000e-12
TYPE
"sweep" FLOAT DOUBLE PROP(
"key" "sweep"
)
"Tau" FLOAT DOUBLE PROP(
"units" "N*m"
"key" "node"
"tolerance" 1.00000e-06
)
"Alpha" FLOAT DOUBLE PROP(
"units" "rads/s^2"
"key" "node"
"tolerance" 1.00000e-06
)
"Omega" FLOAT DOUBLE PROP(
"units" "rads/s"
"key" "node"
"tolerance" 1.00000e-06
)
"Theta" FLOAT DOUBLE PROP(
"units" "rads"
"key" "node"
"tolerance" 1.00000e-06
)
"F" FLOAT DOUBLE PROP(
"units" "N"
"key" "node"
"tolerance" 1.00000e-06
)
"Imp" FLOAT DOUBLE PROP(
"units" "m/s^3"
"key" "node"
"tolerance" 1.00000e-06
)
"Acc" FLOAT DOUBLE PROP(
"units" "m/s^2"
"key" "node"
"tolerance" 1.00000e-06
)
"Vel" FLOAT DOUBLE PROP(
"units" "m/s"
"key" "node"
"tolerance" 1.00000e-06
)
"Pos" FLOAT DOUBLE PROP(
"units" "m"
"key" "node"
"tolerance" 1.00000e-06
)
"Phi" FLOAT DOUBLE PROP(
"units" "Wb"
"key" "node"
"tolerance" 1.00000e-09
)
"Q" FLOAT DOUBLE PROP(
"units" "coul"
"key" "node"
"tolerance" 1.00000e-14
)
"V" FLOAT DOUBLE PROP(
"units" "V"
"key" "node"
"tolerance" 1.00000e-06
)
"I" FLOAT DOUBLE PROP(
"units" "A"
"key" "branch"
"tolerance" 1.00000e-12
)
"MMF" FLOAT DOUBLE PROP(
"units" "A*turn"
"key" "node"
"tolerance" 1.00000e-12
)
"Wb" FLOAT DOUBLE PROP(
"units" "Wb"
"key" "node"
"tolerance" 1.00000e-09
)
"Temp" FLOAT DOUBLE PROP(
"units" "C"
"key" "node"
"tolerance" 0.000100000
)
"Pwr" FLOAT DOUBLE PROP(
"units" "W"
"key" "node"
"tolerance" 1.00000e-09
)
"U" FLOAT DOUBLE PROP(
"units" ""
"key" "node"
"tolerance" 1.00000e-06
)
"V/Sec" FLOAT DOUBLE PROP(
"units" "V/s"
"key" "node"
"tolerance" 0.000100000
)
"I/Sec" FLOAT DOUBLE PROP(
"units" "A/s"
"key" "node"
"tolerance" 1.00000e-06
)
"1/Sec" FLOAT DOUBLE PROP(
"units" "1/s"
"key" "node"
"tolerance" 0.000100000
)
"HOD" FLOAT DOUBLE PROP(
"units" ""
"key" "node"
"tolerance" 0.0100000
)
"A" FLOAT DOUBLE PROP(
"key" "inst"
)
"W" FLOAT DOUBLE PROP(
"key" "inst"
)
SWEEP
"time" "sweep" PROP(
"sweep_direction" 0
"units" "s"
"plot" 0
"grid" 1
)
TRACE
"Vn_D1:v" "V" PROP(
"units" "V"
)
"Vn_D1:i" "A" PROP(
"units" "A"
)
"Vn_D1:pwr" "W" PROP(
"units" "W"
)
"Vn_GND:v" "V" PROP(
"units" "V"
)
"Vn_GND:i" "A" PROP(
"units" "A"
)
"Vn_GND:pwr" "W" PROP(
"units" "W"
)
"Vn_SD:v" "V" PROP(
"units" "V"
)
"Vn_SD:i" "A" PROP(
"units" "A"
)
"Vn_SD:pwr" "W" PROP(
"units" "W"
)
"Vn_VDD:v" "V" PROP(
"units" "V"
)
"Vn_VDD:i" "A" PROP(
"units" "A"
)
"Vn_VDD:pwr" "W" PROP(
"units" "W"
)
"Vn_Z:v" "V" PROP(
"units" "V"
)
"Vn_Z:i" "A" PROP(
"units" "A"
)
"Vn_Z:pwr" "W" PROP(
"units" "W"
)
"n_Z" "V"
"n_D1" "V"
"n_SD" "V"
"Vn_D1:n" "I"
"Vn_D1:p" "I"
"Vn_GND:n" "I"
"Vn_GND:p" "I"
"Vn_SD:n" "I"
"Vn_SD:p" "I"
"Vn_VDD:n" "I"
"Vn_VDD:p" "I"
"Vn_Z:n" "I"
"Vn_Z:p" "I"
VALUE
"time" 0.000000000000000e+00
"Vn_D1:v" 0.000000000000000e+00
"Vn_D1:i" 7.517119452868265e-14
"Vn_D1:pwr" 0.000000000000000e+00
"Vn_GND:v" 0.000000000000000e+00
"Vn_GND:i" 2.548493107913156e-10
"Vn_GND:pwr" 0.000000000000000e+00
"Vn_SD:v" 0.000000000000000e+00
"Vn_SD:i" -5.105704018311278e-13
"Vn_SD:pwr" -0.000000000000000e+00
"Vn_VDD:v" 1.200000000000000e+00
"Vn_VDD:i" -2.544688430803593e-10
"Vn_VDD:pwr" -3.053626116964312e-10
"Vn_Z:v" 0.000000000000000e+00
"Vn_Z:i" 0.000000000000000e+00
"Vn_Z:pwr" 0.000000000000000e+00
"n_Z" 1.199999494927445e+00
"n_D1" 0.000000000000000e+00
"n_SD" 1.200000000000000e+00
"Vn_D1:n" -7.517119452868265e-14
"Vn_D1:p" 7.517119452868265e-14
"Vn_GND:n" -2.548493107913156e-10
"Vn_GND:p" 2.548493107913156e-10
"Vn_SD:n" 5.105704018311278e-13
"Vn_SD:p" -5.105704018311278e-13
"Vn_VDD:n" 2.544688430803593e-10
"Vn_VDD:p" -2.544688430803593e-10
"Vn_Z:n" 0.000000000000000e+00
"Vn_Z:p" 0.000000000000000e+00
"time" 3.900000000000000e-11
"Vn_D1:v" 0.000000000000000e+00
"Vn_D1:i" 7.486143249336791e-14
"Vn_D1:pwr" 0.000000000000000e+00
"Vn_GND:v" 0.000000000000000e+00
"Vn_GND:i" 2.548643393137557e-10
"Vn_GND:pwr" 0.000000000000000e+00
"Vn_SD:v" 0.000000000000000e+00
"Vn_SD:i" -5.109604250088217e-13
"Vn_SD:pwr" -0.000000000000000e+00
"Vn_VDD:v" 1.200000000000000e+00
"Vn_VDD:i" -2.544783908680376e-10
"Vn_VDD:pwr" -3.053740690416451e-10
"Vn_Z:v" 0.000000000000000e+00
"Vn_Z:i" -4.780948863532712e-15
"Vn_Z:pwr" -0.000000000000000e+00
"n_Z" 1.199999494890153e+00
"n_D1" 0.000000000000000e+00
"n_SD" 1.200000000000000e+00
"Vn_D1:n" -7.486143249336791e-14
"Vn_D1:p" 7.486143249336791e-14
"Vn_GND:n" -2.548643393137557e-10
"Vn_GND:p" 2.548643393137557e-10
"Vn_SD:n" 5.109604250088217e-13
"Vn_SD:p" -5.109604250088217e-13
"Vn_VDD:n" 2.544783908680376e-10
"Vn_VDD:p" -2.544783908680376e-10
"Vn_Z:n" 4.780948863532712e-15
"Vn_Z:p" -4.780948863532712e-15
"time" 1.170000000000000e-10
"Vn_D1:v" 0.000000000000000e+00
"Vn_D1:i" 7.504752772020695e-14
"Vn_D1:pwr" 0.000000000000000e+00
"Vn_GND:v" 0.000000000000000e+00
"Vn_GND:i" 2.548656910633811e-10
"Vn_GND:pwr" 0.000000000000000e+00
"Vn_SD:v" 0.000000000000000e+00
"Vn_SD:i" -5.107113494320814e-13
"Vn_SD:pwr" -0.000000000000000e+00
"Vn_VDD:v" 1.200000000000000e+00
"Vn_VDD:i" -2.544834008519887e-10
"Vn_VDD:pwr" -3.053800810223864e-10
"Vn_Z:v" 0.000000000000000e+00
"Vn_Z:i" -1.557890516530739e-15
"Vn_Z:pwr" -0.000000000000000e+00
"n_Z" 1.199999494865850e+00
"n_D1" 0.000000000000000e+00
"n_SD" 1.200000000000000e+00
"Vn_D1:n" -7.504752772020695e-14
"Vn_D1:p" 7.504752772020695e-14
"Vn_GND:n" -2.548656910633811e-10
"Vn_GND:p" 2.548656910633811e-10
"Vn_SD:n" 5.107113494320814e-13
"Vn_SD:p" -5.107113494320814e-13
"Vn_VDD:n" 2.544834008519887e-10
"Vn_VDD:p" -2.544834008519887e-10
"Vn_Z:n" 1.557890516530739e-15
"Vn_Z:p" -1.557890516530739e-15
"time" 2.730000000000000e-10
"Vn_D1:v" 0.000000000000000e+00
"Vn_D1:i" 7.521177730254140e-14
"Vn_D1:pwr" 0.000000000000000e+00
"Vn_GND:v" 0.000000000000000e+00
"Vn_GND:i" 2.548665260071012e-10
"Vn_GND:pwr" 0.000000000000000e+00
"Vn_SD:v" 0.000000000000000e+00
"Vn_SD:i" -5.105237412071765e-13
"Vn_SD:pwr" -0.000000000000000e+00
"Vn_VDD:v" 1.200000000000000e+00
"Vn_VDD:i" -2.544866820447839e-10
"Vn_VDD:pwr" -3.053840184537406e-10
"Vn_Z:v" 0.000000000000000e+00
"Vn_Z:i" 5.317748936538391e-16
"Vn_Z:pwr" 0.000000000000000e+00
"n_Z" 1.199999494849843e+00
"n_D1" 0.000000000000000e+00
"n_SD" 1.200000000000000e+00
"Vn_D1:n" -7.521177730254140e-14
"Vn_D1:p" 7.521177730254140e-14
"Vn_GND:n" -2.548665260071012e-10
"Vn_GND:p" 2.548665260071012e-10
"Vn_SD:n" 5.105237412071765e-13
"Vn_SD:p" -5.105237412071765e-13
"Vn_VDD:n" 2.544866820447839e-10
"Vn_VDD:p" -2.544866820447839e-10
"Vn_Z:n" -5.317748936538391e-16
"Vn_Z:p" 5.317748936538391e-16
"time" 5.850000000000002e-10
"Vn_D1:v" 0.000000000000000e+00
"Vn_D1:i" 7.514772913859765e-14
"Vn_D1:pwr" 0.000000000000000e+00
"Vn_GND:v" 0.000000000000000e+00
"Vn_GND:i" 2.548661627833191e-10
"Vn_GND:pwr" 0.000000000000000e+00
"Vn_SD:v" 0.000000000000000e+00
"Vn_SD:i" -5.105976662028938e-13
"Vn_SD:pwr" -0.000000000000000e+00
"Vn_VDD:v" 1.200000000000000e+00
"Vn_VDD:i" -2.544853205707741e-10
"Vn_VDD:pwr" -3.053823846849289e-10
"Vn_Z:v" 0.000000000000000e+00
"Vn_Z:i" -3.198804754348224e-16
"Vn_Z:pwr" -0.000000000000000e+00
"n_Z" 1.199999494856454e+00
"n_D1" 0.000000000000000e+00
"n_SD" 1.200000000000000e+00
"Vn_D1:n" -7.514772913859765e-14
"Vn_D1:p" 7.514772913859765e-14
"Vn_GND:n" -2.548661627833191e-10
"Vn_GND:p" 2.548661627833191e-10
"Vn_SD:n" 5.105976662028938e-13
"Vn_SD:p" -5.105976662028938e-13
"Vn_VDD:n" 2.544853205707741e-10
"Vn_VDD:p" -2.544853205707741e-10
"Vn_Z:n" 3.198804754348224e-16
"Vn_Z:p" -3.198804754348224e-16
"time" 1.209000000000000e-09
"Vn_D1:v" 0.000000000000000e+00
"Vn_D1:i" 7.518919472027579e-14
"Vn_D1:pwr" 0.000000000000000e+00
"Vn_GND:v" 0.000000000000000e+00
"Vn_GND:i" 2.548663582289725e-10
"Vn_GND:pwr" 0.000000000000000e+00
"Vn_SD:v" 0.000000000000000e+00
"Vn_SD:i" -5.105492942883762e-13
"Vn_SD:pwr" -0.000000000000000e+00
"Vn_VDD:v" 1.200000000000000e+00
"Vn_VDD:i" -2.544861835921844e-10
"Vn_VDD:pwr" -3.053834203106212e-10
"Vn_Z:v" 0.000000000000000e+00
"Vn_Z:i" 2.522969417565553e-16
"Vn_Z:pwr" 0.000000000000000e+00
"n_Z" 1.199999494852237e+00
"n_D1" 0.000000000000000e+00
"n_SD" 1.200000000000000e+00
"Vn_D1:n" -7.518919472027579e-14
"Vn_D1:p" 7.518919472027579e-14
"Vn_GND:n" -2.548663582289725e-10
"Vn_GND:p" 2.548663582289725e-10
"Vn_SD:n" 5.105492942883762e-13
"Vn_SD:p" -5.105492942883762e-13
"Vn_VDD:n" 2.544861835921844e-10
"Vn_VDD:p" -2.544861835921844e-10
"Vn_Z:n" -2.522969417565553e-16
"Vn_Z:p" 2.522969417565553e-16
"time" 1.989000000000000e-09
"Vn_D1:v" 0.000000000000000e+00
"Vn_D1:i" 7.515701474796672e-14
"Vn_D1:pwr" 0.000000000000000e+00
"Vn_GND:v" 0.000000000000000e+00
"Vn_GND:i" 2.548661267007136e-10
"Vn_GND:pwr" 0.000000000000000e+00
"Vn_SD:v" 0.000000000000000e+00
"Vn_SD:i" -5.105871917541190e-13
"Vn_SD:pwr" -0.000000000000000e+00
"Vn_VDD:v" 1.200000000000000e+00
"Vn_VDD:i" -2.544854162913506e-10
"Vn_VDD:pwr" -3.053824995496208e-10
"Vn_Z:v" 0.000000000000000e+00
"Vn_Z:i" -2.049152870951943e-16
"Vn_Z:pwr" -0.000000000000000e+00
"n_Z" 1.199999494855932e+00
"n_D1" 0.000000000000000e+00
"n_SD" 1.200000000000000e+00
"Vn_D1:n" -7.515701474796672e-14
"Vn_D1:p" 7.515701474796672e-14
"Vn_GND:n" -2.548661267007136e-10
"Vn_GND:p" 2.548661267007136e-10
"Vn_SD:n" 5.105871917541190e-13
"Vn_SD:p" -5.105871917541190e-13
"Vn_VDD:n" 2.544854162913506e-10
"Vn_VDD:p" -2.544854162913506e-10
"Vn_Z:n" 2.049152870951943e-16
"Vn_Z:p" -2.049152870951943e-16
"time" 2.769000000000001e-09
"Vn_D1:v" 0.000000000000000e+00
"Vn_D1:i" 7.518249666777441e-14
"Vn_D1:pwr" 0.000000000000000e+00
"Vn_GND:v" 0.000000000000000e+00
"Vn_GND:i" 2.548662332212062e-10
"Vn_GND:pwr" 0.000000000000000e+00
"Vn_SD:v" 0.000000000000000e+00
"Vn_SD:i" -5.105568398321802e-13
"Vn_SD:pwr" -0.000000000000000e+00
"Vn_VDD:v" 1.200000000000000e+00
"Vn_VDD:i" -2.544859690649728e-10
"Vn_VDD:pwr" -3.053831628779674e-10
"Vn_Z:v" 0.000000000000000e+00
"Vn_Z:i" 1.704515732225906e-16
"Vn_Z:pwr" 0.000000000000000e+00
"n_Z" 1.199999494853245e+00
"n_D1" 0.000000000000000e+00
"n_SD" 1.200000000000000e+00
"Vn_D1:n" -7.518249666777441e-14
"Vn_D1:p" 7.518249666777441e-14
"Vn_GND:n" -2.548662332212062e-10
"Vn_GND:p" 2.548662332212062e-10
"Vn_SD:n" 5.105568398321802e-13
"Vn_SD:p" -5.105568398321802e-13
"Vn_VDD:n" 2.544859690649728e-10
"Vn_VDD:p" -2.544859690649728e-10
"Vn_Z:n" -1.704515732225906e-16
"Vn_Z:p" 1.704515732225906e-16
"time" 3.000000000000000e-09
"Vn_D1:v" 0.000000000000000e+00
"Vn_D1:i" 7.516681457188429e-14
"Vn_D1:pwr" 0.000000000000000e+00
"Vn_GND:v" 0.000000000000000e+00
"Vn_GND:i" 2.548661166174056e-10
"Vn_GND:pwr" 0.000000000000000e+00
"Vn_SD:v" 0.000000000000000e+00
"Vn_SD:i" -5.105761921458628e-13
"Vn_SD:pwr" -0.000000000000000e+00
"Vn_VDD:v" 1.200000000000000e+00
"Vn_VDD:i" -2.544855454107324e-10
"Vn_VDD:pwr" -3.053826544928789e-10
"Vn_Z:v" 0.000000000000000e+00
"Vn_Z:i" -8.334973591838019e-17
"Vn_Z:pwr" -0.000000000000000e+00
"n_Z" 1.199999494855257e+00
"n_D1" 0.000000000000000e+00
"n_SD" 1.200000000000000e+00
"Vn_D1:n" -7.516681457188429e-14
"Vn_D1:p" 7.516681457188429e-14
"Vn_GND:n" -2.548661166174056e-10
"Vn_GND:p" 2.548661166174056e-10
"Vn_SD:n" 5.105761921458628e-13
"Vn_SD:p" -5.105761921458628e-13
"Vn_VDD:n" 2.544855454107324e-10
"Vn_VDD:p" -2.544855454107324e-10
"Vn_Z:n" 8.334973591838019e-17
"Vn_Z:p" -8.334973591838019e-17
"time" 3.010000000000000e-09
"Vn_D1:v" 0.000000000000000e+00
"Vn_D1:i" 7.516603824744728e-14
"Vn_D1:pwr" 0.000000000000000e+00
"Vn_GND:v" 0.000000000000000e+00
"Vn_GND:i" 2.548661234618206e-10
"Vn_GND:pwr" 0.000000000000000e+00
"Vn_SD:v" 0.000000000000000e+00
"Vn_SD:i" -5.105760217749306e-13
"Vn_SD:pwr" -0.000000000000000e+00
"Vn_VDD:v" 1.200000000000000e+00
"Vn_VDD:i" -2.544855789420640e-10
"Vn_VDD:pwr" -3.053826947304768e-10
"Vn_Z:v" 0.000000000000000e+00
"Vn_Z:i" -6.607487173475200e-17
"Vn_Z:pwr" -0.000000000000000e+00
"n_Z" 1.199999494855124e+00
"n_D1" 0.000000000000000e+00
"n_SD" 1.200000000000000e+00
"Vn_D1:n" -7.516603824744728e-14
"Vn_D1:p" 7.516603824744728e-14
"Vn_GND:n" -2.548661234618206e-10
"Vn_GND:p" 2.548661234618206e-10
"Vn_SD:n" 5.105760217749306e-13
"Vn_SD:p" -5.105760217749306e-13
"Vn_VDD:n" 2.544855789420640e-10
"Vn_VDD:p" -2.544855789420640e-10
"Vn_Z:n" 6.607487173475200e-17
"Vn_Z:p" -6.607487173475200e-17
"time" 3.030000000000000e-09
"Vn_D1:v" 0.000000000000000e+00
"Vn_D1:i" 7.516772655442623e-14
"Vn_D1:pwr" 0.000000000000000e+00
"Vn_GND:v" 0.000000000000000e+00
"Vn_GND:i" 2.548661318166319e-10
"Vn_GND:pwr" 0.000000000000000e+00
"Vn_SD:v" 0.000000000000000e+00
"Vn_SD:i" -5.105742446704349e-13
"Vn_SD:pwr" -0.000000000000000e+00
"Vn_VDD:v" 1.200000000000000e+00
"Vn_VDD:i" -2.544856137428146e-10
"Vn_VDD:pwr" -3.053827364913776e-10
"Vn_Z:v" 0.000000000000000e+00
"Vn_Z:i" -4.303658847724279e-17
"Vn_Z:pwr" -0.000000000000000e+00
"n_Z" 1.199999494854952e+00
"n_D1" 0.000000000000000e+00
"n_SD" 1.200000000000000e+00
"Vn_D1:n" -7.516772655442623e-14
"Vn_D1:p" 7.516772655442623e-14
"Vn_GND:n" -2.548661318166319e-10
"Vn_GND:p" 2.548661318166319e-10
"Vn_SD:n" 5.105742446704349e-13
"Vn_SD:p" -5.105742446704349e-13
"Vn_VDD:n" 2.544856137428146e-10
"Vn_VDD:p" -2.544856137428146e-10
"Vn_Z:n" 4.303658847724279e-17
"Vn_Z:p" -4.303658847724279e-17
"time" 3.070000000000001e-09
"Vn_D1:v" 0.000000000000000e+00
"Vn_D1:i" 7.517024424888017e-14
"Vn_D1:pwr" 0.000000000000000e+00
"Vn_GND:v" 0.000000000000000e+00
"Vn_GND:i" 2.548661417896232e-10
"Vn_GND:pwr" 0.000000000000000e+00
"Vn_SD:v" 0.000000000000000e+00
"Vn_SD:i" -5.105716300281668e-13
"Vn_SD:pwr" -0.000000000000000e+00
"Vn_VDD:v" 1.200000000000000e+00
"Vn_VDD:i" -2.544856574522589e-10
"Vn_VDD:pwr" -3.053827889427106e-10
"Vn_Z:v" 0.000000000000000e+00
"Vn_Z:i" -1.238852208049990e-17
"Vn_Z:pwr" -0.000000000000000e+00
"n_Z" 1.199999494854730e+00
"n_D1" 0.000000000000000e+00
"n_SD" 1.200000000000000e+00
"Vn_D1:n" -7.517024424888017e-14
"Vn_D1:p" 7.517024424888017e-14
"Vn_GND:n" -2.548661417896232e-10
"Vn_GND:p" 2.548661417896232e-10
"Vn_SD:n" 5.105716300281668e-13
"Vn_SD:p" -5.105716300281668e-13
"Vn_VDD:n" 2.544856574522589e-10
"Vn_VDD:p" -2.544856574522589e-10
"Vn_Z:n" 1.238852208049990e-17
"Vn_Z:p" -1.238852208049990e-17
"time" 3.150000000000003e-09
"Vn_D1:v" 0.000000000000000e+00
"Vn_D1:i" 7.517114999193360e-14
"Vn_D1:pwr" 0.000000000000000e+00
"Vn_GND:v" 0.000000000000000e+00
"Vn_GND:i" 2.548661422945371e-10
"Vn_GND:pwr" 0.000000000000000e+00
"Vn_SD:v" 0.000000000000000e+00
"Vn_SD:i" -5.105703256036562e-13
"Vn_SD:pwr" -0.000000000000000e+00
"Vn_VDD:v" 1.200000000000000e+00
"Vn_VDD:i" -2.544856814454092e-10
"Vn_VDD:pwr" -3.053828177344910e-10
"Vn_Z:v" 0.000000000000000e+00
"Vn_Z:i" 3.780661170785917e-19
"Vn_Z:pwr" 0.000000000000000e+00
"n_Z" 1.199999494854634e+00
"n_D1" 0.000000000000000e+00
"n_SD" 1.200000000000000e+00
"Vn_D1:n" -7.517114999193360e-14
"Vn_D1:p" 7.517114999193360e-14
"Vn_GND:n" -2.548661422945371e-10
"Vn_GND:p" 2.548661422945371e-10
"Vn_SD:n" 5.105703256036562e-13
"Vn_SD:p" -5.105703256036562e-13
"Vn_VDD:n" 2.544856814454092e-10
"Vn_VDD:p" -2.544856814454092e-10
"Vn_Z:n" -3.780661170785917e-19
"Vn_Z:p" 3.780661170785917e-19
"time" 3.310000000000005e-09
"Vn_D1:v" 0.000000000000000e+00
"Vn_D1:i" 7.517158811039108e-14
"Vn_D1:pwr" 0.000000000000000e+00
"Vn_GND:v" 0.000000000000000e+00
"Vn_GND:i" 2.548661345999912e-10
"Vn_GND:pwr" 0.000000000000000e+00
"Vn_SD:v" 0.000000000000000e+00
"Vn_SD:i" -5.105699903086026e-13
"Vn_SD:pwr" -0.000000000000000e+00
"Vn_VDD:v" 1.200000000000000e+00
"Vn_VDD:i" -2.544856612204777e-10
"Vn_VDD:pwr" -3.053827934645732e-10
"Vn_Z:v" 0.000000000000000e+00
"Vn_Z:i" 3.179220263137598e-18
"Vn_Z:pwr" 0.000000000000000e+00
"n_Z" 1.199999494854691e+00
"n_D1" 0.000000000000000e+00
"n_SD" 1.200000000000000e+00
"Vn_D1:n" -7.517158811039108e-14
"Vn_D1:p" 7.517158811039108e-14
"Vn_GND:n" -2.548661345999912e-10
"Vn_GND:p" 2.548661345999912e-10
"Vn_SD:n" 5.105699903086026e-13
"Vn_SD:p" -5.105699903086026e-13
"Vn_VDD:n" 2.544856612204777e-10
"Vn_VDD:p" -2.544856612204777e-10
"Vn_Z:n" -3.179220263137598e-18
"Vn_Z:p" 3.179220263137598e-18
"time" 3.630000000000011e-09
"Vn_D1:v" 0.000000000000000e+00
"Vn_D1:i" 7.517099456146155e-14
"Vn_D1:pwr" 0.000000000000000e+00
"Vn_GND:v" 0.000000000000000e+00
"Vn_GND:i" 2.548661132755025e-10
"Vn_GND:pwr" 0.000000000000000e+00
"Vn_SD:v" 0.000000000000000e+00
"Vn_SD:i" -5.105706290672117e-13
"Vn_SD:pwr" -0.000000000000000e+00
"Vn_VDD:v" 1.200000000000000e+00
"Vn_VDD:i" -2.544856512925699e-10
"Vn_VDD:pwr" -3.053827815510839e-10
"Vn_Z:v" 0.000000000000000e+00
"Vn_Z:i" -9.718980220214909e-19
"Vn_Z:pwr" -0.000000000000000e+00
"n_Z" 1.199999494854762e+00
"n_D1" 0.000000000000000e+00
"n_SD" 1.200000000000000e+00
"Vn_D1:n" -7.517099456146155e-14
"Vn_D1:p" 7.517099456146155e-14
"Vn_GND:n" -2.548661132755025e-10
"Vn_GND:p" 2.548661132755025e-10
"Vn_SD:n" 5.105706290672117e-13
"Vn_SD:p" -5.105706290672117e-13
"Vn_VDD:n" 2.544856512925699e-10
"Vn_VDD:p" -2.544856512925699e-10
"Vn_Z:n" 9.718980220214909e-19
"Vn_Z:p" -9.718980220214909e-19
"time" 4.270000000000022e-09
"Vn_D1:v" 0.000000000000000e+00
"Vn_D1:i" 7.517148510098664e-14
"Vn_D1:pwr" 0.000000000000000e+00
"Vn_GND:v" 0.000000000000000e+00
"Vn_GND:i" 2.548660781958169e-10
"Vn_GND:pwr" 0.000000000000000e+00
"Vn_SD:v" 0.000000000000000e+00
"Vn_SD:i" -5.105700392386721e-13
"Vn_SD:pwr" -0.000000000000000e+00
"Vn_VDD:v" 1.200000000000000e+00
"Vn_VDD:i" -2.544856120432229e-10
"Vn_VDD:pwr" -3.053827344518675e-10
"Vn_Z:v" 0.000000000000000e+00
"Vn_Z:i" 3.508864121417440e-18
"Vn_Z:pwr" 0.000000000000000e+00
"n_Z" 1.199999494854924e+00
"n_D1" 0.000000000000000e+00
"n_SD" 1.200000000000000e+00
"Vn_D1:n" -7.517148510098664e-14
"Vn_D1:p" 7.517148510098664e-14
"Vn_GND:n" -2.548660781958169e-10
"Vn_GND:p" 2.548660781958169e-10
"Vn_SD:n" 5.105700392386721e-13
"Vn_SD:p" -5.105700392386721e-13
"Vn_VDD:n" 2.544856120432229e-10
"Vn_VDD:p" -2.544856120432229e-10
"Vn_Z:n" -3.508864121417440e-18
"Vn_Z:p" 3.508864121417440e-18
"time" 5.050000000000022e-09
"Vn_D1:v" 0.000000000000000e+00
"Vn_D1:i" 7.517103713615958e-14
"Vn_D1:pwr" 0.000000000000000e+00
"Vn_GND:v" 0.000000000000000e+00
"Vn_GND:i" 2.548660308127008e-10
"Vn_GND:pwr" 0.000000000000000e+00
"Vn_SD:v" 0.000000000000000e+00
"Vn_SD:i" -5.105706263236395e-13
"Vn_SD:pwr" -0.000000000000000e+00
"Vn_VDD:v" 1.200000000000000e+00
"Vn_VDD:i" -2.544855630327211e-10
"Vn_VDD:pwr" -3.053826756392653e-10
"Vn_Z:v" 0.000000000000000e+00
"Vn_Z:i" -9.125035776371197e-19
"Vn_Z:pwr" -0.000000000000000e+00
"n_Z" 1.199999494855127e+00
"n_D1" 0.000000000000000e+00
"n_SD" 1.200000000000000e+00
"Vn_D1:n" -7.517103713615958e-14
"Vn_D1:p" 7.517103713615958e-14
"Vn_GND:n" -2.548660308127008e-10
"Vn_GND:p" 2.548660308127008e-10
"Vn_SD:n" 5.105706263236395e-13
"Vn_SD:p" -5.105706263236395e-13
"Vn_VDD:n" 2.544855630327211e-10
"Vn_VDD:p" -2.544855630327211e-10
"Vn_Z:n" 9.125035776371197e-19
"Vn_Z:p" -9.125035776371197e-19
"time" 5.830000000000022e-09
"Vn_D1:v" 0.000000000000000e+00
"Vn_D1:i" 7.517142324940113e-14
"Vn_D1:pwr" 0.000000000000000e+00
"Vn_GND:v" 0.000000000000000e+00
"Vn_GND:i" 2.548659876060408e-10
"Vn_GND:pwr" 0.000000000000000e+00
"Vn_SD:v" 0.000000000000000e+00
"Vn_SD:i" -5.105700722658669e-13
"Vn_SD:pwr" -0.000000000000000e+00
"Vn_VDD:v" 1.200000000000000e+00
"Vn_VDD:i" -2.544855279240127e-10
"Vn_VDD:pwr" -3.053826335088152e-10
"Vn_Z:v" 0.000000000000000e+00
"Vn_Z:i" 3.201313760170533e-18
"Vn_Z:pwr" 0.000000000000000e+00
"n_Z" 1.199999494855305e+00
"n_D1" 0.000000000000000e+00
"n_SD" 1.200000000000000e+00
"Vn_D1:n" -7.517142324940113e-14
"Vn_D1:p" 7.517142324940113e-14
"Vn_GND:n" -2.548659876060408e-10
"Vn_GND:p" 2.548659876060408e-10
"Vn_SD:n" 5.105700722658669e-13
"Vn_SD:p" -5.105700722658669e-13
"Vn_VDD:n" 2.544855279240127e-10
"Vn_VDD:p" -2.544855279240127e-10
"Vn_Z:n" -3.201313760170533e-18
"Vn_Z:p" 3.201313760170533e-18
"time" 6.010000000000000e-09
"Vn_D1:v" 0.000000000000000e+00
"Vn_D1:i" 7.517131157031628e-14
"Vn_D1:pwr" 0.000000000000000e+00
"Vn_GND:v" 0.000000000000000e+00
"Vn_GND:i" 2.548659763224346e-10
"Vn_GND:pwr" 0.000000000000000e+00
"Vn_SD:v" 0.000000000000000e+00
"Vn_SD:i" -5.105703796709050e-13
"Vn_SD:pwr" -0.000000000000000e+00
"Vn_VDD:v" 1.200000000000000e+00
"Vn_VDD:i" -2.544855024118083e-10
"Vn_VDD:pwr" -3.053826028941700e-10
"Vn_Z:v" 0.000000000000000e+00
"Vn_Z:i" 8.605836655698656e-21
"Vn_Z:pwr" 0.000000000000000e+00
"n_Z" 1.199999494855363e+00
"n_D1" 0.000000000000000e+00
"n_SD" 1.200000000000000e+00
"Vn_D1:n" -7.517131157031628e-14
"Vn_D1:p" 7.517131157031628e-14
"Vn_GND:n" -2.548659763224346e-10
"Vn_GND:p" 2.548659763224346e-10
"Vn_SD:n" 5.105703796709050e-13
"Vn_SD:p" -5.105703796709050e-13
"Vn_VDD:n" 2.544855024118083e-10
"Vn_VDD:p" -2.544855024118083e-10
"Vn_Z:n" -8.605836655698656e-21
"Vn_Z:p" 8.605836655698656e-21
"time" 6.019999743400000e-09
"Vn_D1:v" 0.000000000000000e+00
"Vn_D1:i" 7.517099914054207e-14
"Vn_D1:pwr" 0.000000000000000e+00
"Vn_GND:v" 0.000000000000000e+00
"Vn_GND:i" 2.548659757246405e-10
"Vn_GND:pwr" 0.000000000000000e+00
"Vn_SD:v" 0.000000000000000e+00
"Vn_SD:i" -5.105704522077575e-13
"Vn_SD:pwr" -0.000000000000000e+00
"Vn_VDD:v" 1.200000000000000e+00
"Vn_VDD:i" -2.544855088813776e-10
"Vn_VDD:pwr" -3.053826106576531e-10
"Vn_Z:v" 0.000000000000000e+00
"Vn_Z:i" 1.140483920561793e-18
"Vn_Z:pwr" 0.000000000000000e+00
"n_Z" 1.199999494855366e+00
"n_D1" 0.000000000000000e+00
"n_SD" 1.200000000000000e+00
"Vn_D1:n" -7.517099914054207e-14
"Vn_D1:p" 7.517099914054207e-14
"Vn_GND:n" -2.548659757246405e-10
"Vn_GND:p" 2.548659757246405e-10
"Vn_SD:n" 5.105704522077575e-13
"Vn_SD:p" -5.105704522077575e-13
"Vn_VDD:n" 2.544855088813776e-10
"Vn_VDD:p" -2.544855088813776e-10
"Vn_Z:n" -1.140483920561793e-18
"Vn_Z:p" 1.140483920561793e-18
"time" 6.020000000000000e-09
"Vn_D1:v" 0.000000000000000e+00
"Vn_D1:i" -1.075155977908795e-06
"Vn_D1:pwr" -0.000000000000000e+00
"Vn_GND:v" 0.000000000000000e+00
"Vn_GND:i" 1.931705648091464e-07
"Vn_GND:pwr" 0.000000000000000e+00
"Vn_SD:v" 0.000000000000000e+00
"Vn_SD:i" 5.439211430297969e-11
"Vn_SD:pwr" 0.000000000000000e+00
"Vn_VDD:v" 1.200000000000000e+00
"Vn_VDD:i" 8.819306849388931e-07
"Vn_VDD:pwr" 1.058316821926672e-06
"Vn_Z:v" 0.000000000000000e+00
"Vn_Z:i" 2.811600448116990e-13
"Vn_Z:pwr" 0.000000000000000e+00
"n_Z" 1.199999494855380e+00
"n_D1" 2.456722197575741e-07
"n_SD" 1.200000000000000e+00
"Vn_D1:n" 1.075155977908795e-06
"Vn_D1:p" -1.075155977908795e-06
"Vn_GND:n" -1.931705648091464e-07
"Vn_GND:p" 1.931705648091464e-07
"Vn_SD:n" -5.439211430297969e-11
"Vn_SD:p" 5.439211430297969e-11
"Vn_VDD:n" -8.819306849388931e-07
"Vn_VDD:p" 8.819306849388931e-07
"Vn_Z:n" -2.811600448116990e-13
"Vn_Z:p" 2.811600448116990e-13
"time" 6.020000513200001e-09
"Vn_D1:v" 0.000000000000000e+00
"Vn_D1:i" -1.076410568785990e-06
"Vn_D1:pwr" -0.000000000000000e+00
"Vn_GND:v" 0.000000000000000e+00
"Vn_GND:i" 1.933874216055704e-07
"Vn_GND:pwr" 0.000000000000000e+00
"Vn_SD:v" 0.000000000000000e+00
"Vn_SD:i" 1.638503742858905e-10
"Vn_SD:pwr" 0.000000000000000e+00
"Vn_VDD:v" 1.200000000000000e+00
"Vn_VDD:i" 8.828572890499512e-07
"Vn_VDD:pwr" 1.059428746859941e-06
"Vn_Z:v" 0.000000000000000e+00
"Vn_Z:i" 1.950814723326515e-12
"Vn_Z:pwr" 0.000000000000000e+00
"n_Z" 1.199999494855580e+00
"n_D1" 7.370166592727224e-07
"n_SD" 1.200000000000000e+00
"Vn_D1:n" 1.076410568785990e-06
"Vn_D1:p" -1.076410568785990e-06
"Vn_GND:n" -1.933874216055704e-07
"Vn_GND:p" 1.933874216055704e-07
"Vn_SD:n" -1.638503742858905e-10
"Vn_SD:p" 1.638503742858905e-10
"Vn_VDD:n" -8.828572890499512e-07
"Vn_VDD:p" 8.828572890499512e-07
"Vn_Z:n" -1.950814723326515e-12
"Vn_Z:p" 1.950814723326515e-12
"time" 6.020001539600004e-09
"Vn_D1:v" 0.000000000000000e+00
"Vn_D1:i" -1.078910638469144e-06
"Vn_D1:pwr" -0.000000000000000e+00
"Vn_GND:v" 0.000000000000000e+00
"Vn_GND:i" 1.938196719786710e-07
"Vn_GND:pwr" 0.000000000000000e+00
"Vn_SD:v" 0.000000000000000e+00
"Vn_SD:i" 3.820693495691446e-10
"Vn_SD:pwr" 0.000000000000000e+00
"Vn_VDD:v" 1.200000000000000e+00
"Vn_VDD:i" 8.847013729277032e-07
"Vn_VDD:pwr" 1.061641647513244e-06
"Vn_Z:v" 0.000000000000000e+00
"Vn_Z:i" 7.470637970647193e-12
"Vn_Z:pwr" 0.000000000000000e+00
"n_Z" 1.199999494856547e+00
"n_D1" 1.719705538303019e-06
"n_SD" 1.200000000000000e+00
"Vn_D1:n" 1.078910638469144e-06
"Vn_D1:p" -1.078910638469144e-06
"Vn_GND:n" -1.938196719786710e-07
"Vn_GND:p" 1.938196719786710e-07
"Vn_SD:n" -3.820693495691446e-10
"Vn_SD:p" 3.820693495691446e-10
"Vn_VDD:n" -8.847013729277032e-07
"Vn_VDD:p" 8.847013729277032e-07
"Vn_Z:n" -7.470637970647193e-12
"Vn_Z:p" 7.470637970647193e-12
"time" 6.020003592400008e-09
"Vn_D1:v" 0.000000000000000e+00
"Vn_D1:i" -1.083856410298288e-06
"Vn_D1:pwr" -0.000000000000000e+00
"Vn_GND:v" 0.000000000000000e+00
"Vn_GND:i" 1.946754605252242e-07
"Vn_GND:pwr" 0.000000000000000e+00
"Vn_SD:v" 0.000000000000000e+00
"Vn_SD:i" 8.143625378935360e-10
"Vn_SD:pwr" 0.000000000000000e+00
"Vn_VDD:v" 1.200000000000000e+00
"Vn_VDD:i" 8.883353352692758e-07
"Vn_VDD:pwr" 1.066002402323131e-06
"Vn_Z:v" 0.000000000000000e+00
"Vn_Z:i" 3.119430010719391e-11
"Vn_Z:pwr" 0.000000000000000e+00
"n_Z" 1.199999494864485e+00
"n_D1" 3.685083296363612e-06
"n_SD" 1.200000000000000e+00
"Vn_D1:n" 1.083856410298288e-06
"Vn_D1:p" -1.083856410298288e-06
"Vn_GND:n" -1.946754605252242e-07
"Vn_GND:p" 1.946754605252242e-07
"Vn_SD:n" -8.143625378935360e-10
"Vn_SD:p" 8.143625378935360e-10
"Vn_VDD:n" -8.883353352692758e-07
"Vn_VDD:p" 8.883353352692758e-07
"Vn_Z:n" -3.119430010719391e-11
"Vn_Z:p" 3.119430010719391e-11
"time" 6.020007698000017e-09
"Vn_D1:v" 0.000000000000000e+00
"Vn_D1:i" -1.093535524464250e-06
"Vn_D1:pwr" -0.000000000000000e+00
"Vn_GND:v" 0.000000000000000e+00
"Vn_GND:i" 1.963526190508412e-07
"Vn_GND:pwr" 0.000000000000000e+00
"Vn_SD:v" 0.000000000000000e+00
"Vn_SD:i" 1.662555244166083e-09
"Vn_SD:pwr" 0.000000000000000e+00
"Vn_VDD:v" 1.200000000000000e+00
"Vn_VDD:i" 8.953947035898082e-07
"Vn_VDD:pwr" 1.074473644307770e-06
"Vn_Z:v" 0.000000000000000e+00
"Vn_Z:i" 1.255949244227307e-10
"Vn_Z:pwr" 0.000000000000000e+00
"n_Z" 1.199999494928856e+00
"n_D1" 7.615838812484797e-06
"n_SD" 1.200000000000000e+00
"Vn_D1:n" 1.093535524464250e-06
"Vn_D1:p" -1.093535524464250e-06
"Vn_GND:n" -1.963526190508412e-07
"Vn_GND:p" 1.963526190508412e-07
"Vn_SD:n" -1.662555244166083e-09
"Vn_SD:p" 1.662555244166083e-09
"Vn_VDD:n" -8.953947035898082e-07
"Vn_VDD:p" 8.953947035898082e-07
"Vn_Z:n" -1.255949244227307e-10
"Vn_Z:p" 1.255949244227307e-10
"time" 6.020015909200036e-09
"Vn_D1:v" 0.000000000000000e+00
"Vn_D1:i" -1.112079782973616e-06
"Vn_D1:pwr" -0.000000000000000e+00
"Vn_GND:v" 0.000000000000000e+00
"Vn_GND:i" 1.995730878331262e-07
"Vn_GND:pwr" 0.000000000000000e+00
"Vn_SD:v" 0.000000000000000e+00
"Vn_SD:i" 3.295021126545491e-09
"Vn_SD:pwr" 0.000000000000000e+00
"Vn_VDD:v" 1.200000000000000e+00
"Vn_VDD:i" 9.087362904656101e-07
"Vn_VDD:pwr" 1.090483548558732e-06
"Vn_Z:v" 0.000000000000000e+00
"Vn_Z:i" 4.753253908270532e-10
"Vn_Z:pwr" 0.000000000000000e+00
"n_Z" 1.199999495422283e+00
"n_D1" 1.547734984472717e-05
"n_SD" 1.200000000000000e+00
"Vn_D1:n" 1.112079782973616e-06
"Vn_D1:p" -1.112079782973616e-06
"Vn_GND:n" -1.995730878331262e-07
"Vn_GND:p" 1.995730878331262e-07
"Vn_SD:n" -3.295021126545491e-09
"Vn_SD:p" 3.295021126545491e-09
"Vn_VDD:n" -9.087362904656101e-07
"Vn_VDD:p" 9.087362904656101e-07
"Vn_Z:n" -4.753253908270532e-10
"Vn_Z:p" 4.753253908270532e-10
"time" 6.020032331600072e-09
"Vn_D1:v" 0.000000000000000e+00
"Vn_D1:i" -1.137002773359649e-06
"Vn_D1:pwr" -0.000000000000000e+00
"Vn_GND:v" 0.000000000000000e+00
"Vn_GND:i" 2.055301335033992e-07
"Vn_GND:pwr" 0.000000000000000e+00
"Vn_SD:v" 0.000000000000000e+00
"Vn_SD:i" 6.319812092357786e-09
"Vn_SD:pwr" 0.000000000000000e+00
"Vn_VDD:v" 1.200000000000000e+00
"Vn_VDD:i" 9.235008542796269e-07
"Vn_VDD:pwr" 1.108201025135552e-06
"Vn_Z:v" 0.000000000000000e+00
"Vn_Z:i" 1.651921693365660e-09
"Vn_Z:pwr" 0.000000000000000e+00
"n_Z" 1.199999498915734e+00
"n_D1" 3.120037190921192e-05
"n_SD" 1.200000000000000e+00
"Vn_D1:n" 1.137002773359649e-06
"Vn_D1:p" -1.137002773359649e-06
"Vn_GND:n" -2.055301335033992e-07
"Vn_GND:p" 2.055301335033992e-07
"Vn_SD:n" -6.319812092357786e-09
"Vn_SD:p" 6.319812092357786e-09
"Vn_VDD:n" -9.235008542796269e-07
"Vn_VDD:p" 9.235008542796269e-07
"Vn_Z:n" -1.651921693365660e-09
"Vn_Z:p" 1.651921693365660e-09
"time" 6.020065176400145e-09
"Vn_D1:v" 0.000000000000000e+00
"Vn_D1:i" -1.188162935648727e-06
"Vn_D1:pwr" -0.000000000000000e+00
"Vn_GND:v" 0.000000000000000e+00
"Vn_GND:i" 2.157356116999255e-07
"Vn_GND:pwr" 0.000000000000000e+00
"Vn_SD:v" 0.000000000000000e+00
"Vn_SD:i" 1.152881466964331e-08
"Vn_SD:pwr" 0.000000000000000e+00
"Vn_VDD:v" 1.200000000000000e+00
"Vn_VDD:i" 9.558445346638894e-07
"Vn_VDD:pwr" 1.147013441596667e-06
"Vn_Z:v" 0.000000000000000e+00
"Vn_Z:i" 5.053916458543660e-09
"Vn_Z:pwr" 0.000000000000000e+00
"n_Z" 1.199999520940925e+00
"n_D1" 6.264641603818140e-05
"n_SD" 1.200000000000000e+00
"Vn_D1:n" 1.188162935648727e-06
"Vn_D1:p" -1.188162935648727e-06
"Vn_GND:n" -2.157356116999255e-07
"Vn_GND:p" 2.157356116999255e-07
"Vn_SD:n" -1.152881466964331e-08
"Vn_SD:p" 1.152881466964331e-08
"Vn_VDD:n" -9.558445346638894e-07
"Vn_VDD:p" 9.558445346638894e-07
"Vn_Z:n" -5.053916458543660e-09
"Vn_Z:p" 5.053916458543660e-09
"time" 6.020130866000290e-09
"Vn_D1:v" 0.000000000000000e+00
"Vn_D1:i" -1.265528281670817e-06
"Vn_D1:pwr" -0.000000000000000e+00
"Vn_GND:v" 0.000000000000000e+00
"Vn_GND:i" 2.307770817685422e-07
"Vn_GND:pwr" 0.000000000000000e+00
"Vn_SD:v" 0.000000000000000e+00
"Vn_SD:i" 1.933864276724303e-08
"Vn_SD:pwr" 0.000000000000000e+00