HEADER
"PSFversion" "1.00"
"simulator" "spectre"
"version" "10.1.1.164.isr11"
"date" "3:01:57 PM, Fri Oct 17, 2014"
"design" "* Spectre Timing Acquisition"
"analysis type" "tran"
"analysis name" "transient1-010_transient1"
"analysis description" "Transient Analysis `transient1-010_transient1': time = (0 s -> 39 ns)"
"xVecSorted" "ascending"
"tolerance.relative" 0.00100000
"start" 0.00000
"outputstart" 0.00000
"stop" 3.90000e-08
"step" 3.90000e-11
"maxstep" 7.80000e-10
"ic" "all"
"useprevic" "no"
"skipdc" "no"
"reltol" 0.00100000
"abstol(V)" 1.00000e-06
"abstol(I)" 1.00000e-12
"temp" 25.0000
"tnom" 27.0000
"tempeffects" "all"
"errpreset" "moderate"
"method" "traponly"
"lteratio" 3.50000
"relref" "sigglobal"
"cmin" 0.00000
"gmin" 1.00000e-12
TYPE
"sweep" FLOAT DOUBLE PROP(
"key" "sweep"
)
"Tau" FLOAT DOUBLE PROP(
"units" "N*m"
"key" "node"
"tolerance" 1.00000e-06
)
"Alpha" FLOAT DOUBLE PROP(
"units" "rads/s^2"
"key" "node"
"tolerance" 1.00000e-06
)
"Omega" FLOAT DOUBLE PROP(
"units" "rads/s"
"key" "node"
"tolerance" 1.00000e-06
)
"Theta" FLOAT DOUBLE PROP(
"units" "rads"
"key" "node"
"tolerance" 1.00000e-06
)
"F" FLOAT DOUBLE PROP(
"units" "N"
"key" "node"
"tolerance" 1.00000e-06
)
"Imp" FLOAT DOUBLE PROP(
"units" "m/s^3"
"key" "node"
"tolerance" 1.00000e-06
)
"Acc" FLOAT DOUBLE PROP(
"units" "m/s^2"
"key" "node"
"tolerance" 1.00000e-06
)
"Vel" FLOAT DOUBLE PROP(
"units" "m/s"
"key" "node"
"tolerance" 1.00000e-06
)
"Pos" FLOAT DOUBLE PROP(
"units" "m"
"key" "node"
"tolerance" 1.00000e-06
)
"Phi" FLOAT DOUBLE PROP(
"units" "Wb"
"key" "node"
"tolerance" 1.00000e-09
)
"Q" FLOAT DOUBLE PROP(
"units" "coul"
"key" "node"
"tolerance" 1.00000e-14
)
"V" FLOAT DOUBLE PROP(
"units" "V"
"key" "node"
"tolerance" 1.00000e-06
)
"I" FLOAT DOUBLE PROP(
"units" "A"
"key" "branch"
"tolerance" 1.00000e-12
)
"MMF" FLOAT DOUBLE PROP(
"units" "A*turn"
"key" "node"
"tolerance" 1.00000e-12
)
"Wb" FLOAT DOUBLE PROP(
"units" "Wb"
"key" "node"
"tolerance" 1.00000e-09
)
"Temp" FLOAT DOUBLE PROP(
"units" "C"
"key" "node"
"tolerance" 0.000100000
)
"Pwr" FLOAT DOUBLE PROP(
"units" "W"
"key" "node"
"tolerance" 1.00000e-09
)
"U" FLOAT DOUBLE PROP(
"units" ""
"key" "node"
"tolerance" 1.00000e-06
)
"V/Sec" FLOAT DOUBLE PROP(
"units" "V/s"
"key" "node"
"tolerance" 0.000100000
)
"I/Sec" FLOAT DOUBLE PROP(
"units" "A/s"
"key" "node"
"tolerance" 1.00000e-06
)
"1/Sec" FLOAT DOUBLE PROP(
"units" "1/s"
"key" "node"
"tolerance" 0.000100000
)
"HOD" FLOAT DOUBLE PROP(
"units" ""
"key" "node"
"tolerance" 0.0100000
)
"A" FLOAT DOUBLE PROP(
"key" "inst"
)
"W" FLOAT DOUBLE PROP(
"key" "inst"
)
SWEEP
"time" "sweep" PROP(
"sweep_direction" 0
"units" "s"
"plot" 0
"grid" 1
)
TRACE
"Vn_D1:v" "V" PROP(
"units" "V"
)
"Vn_D1:i" "A" PROP(
"units" "A"
)
"Vn_D1:pwr" "W" PROP(
"units" "W"
)
"Vn_GND:v" "V" PROP(
"units" "V"
)
"Vn_GND:i" "A" PROP(
"units" "A"
)
"Vn_GND:pwr" "W" PROP(
"units" "W"
)
"Vn_SD:v" "V" PROP(
"units" "V"
)
"Vn_SD:i" "A" PROP(
"units" "A"
)
"Vn_SD:pwr" "W" PROP(
"units" "W"
)
"Vn_VDD:v" "V" PROP(
"units" "V"
)
"Vn_VDD:i" "A" PROP(
"units" "A"
)
"Vn_VDD:pwr" "W" PROP(
"units" "W"
)
"Vn_Z:v" "V" PROP(
"units" "V"
)
"Vn_Z:i" "A" PROP(
"units" "A"
)
"Vn_Z:pwr" "W" PROP(
"units" "W"
)
"n_Z" "V"
"n_D1" "V"
"n_SD" "V"
"Vn_D1:n" "I"
"Vn_D1:p" "I"
"Vn_GND:n" "I"
"Vn_GND:p" "I"
"Vn_SD:n" "I"
"Vn_SD:p" "I"
"Vn_VDD:n" "I"
"Vn_VDD:p" "I"
"Vn_Z:n" "I"
"Vn_Z:p" "I"
VALUE
"time" 0.000000000000000e+00
"Vn_D1:v" 0.000000000000000e+00
"Vn_D1:i" 7.517119452868265e-14
"Vn_D1:pwr" 0.000000000000000e+00
"Vn_GND:v" 0.000000000000000e+00
"Vn_GND:i" 2.548493107913156e-10
"Vn_GND:pwr" 0.000000000000000e+00
"Vn_SD:v" 0.000000000000000e+00
"Vn_SD:i" -5.105704018311279e-13
"Vn_SD:pwr" -0.000000000000000e+00
"Vn_VDD:v" 1.200000000000000e+00
"Vn_VDD:i" -2.544688430803593e-10
"Vn_VDD:pwr" -3.053626116964312e-10
"Vn_Z:v" 0.000000000000000e+00
"Vn_Z:i" 0.000000000000000e+00
"Vn_Z:pwr" 0.000000000000000e+00
"n_Z" 1.199999494927445e+00
"n_D1" 0.000000000000000e+00
"n_SD" 1.200000000000000e+00
"Vn_D1:n" -7.517119452868265e-14
"Vn_D1:p" 7.517119452868265e-14
"Vn_GND:n" -2.548493107913156e-10
"Vn_GND:p" 2.548493107913156e-10
"Vn_SD:n" 5.105704018311279e-13
"Vn_SD:p" -5.105704018311279e-13
"Vn_VDD:n" 2.544688430803593e-10
"Vn_VDD:p" -2.544688430803593e-10
"Vn_Z:n" 0.000000000000000e+00
"Vn_Z:p" 0.000000000000000e+00
"time" 3.900000000000000e-11
"Vn_D1:v" 0.000000000000000e+00
"Vn_D1:i" 7.485248270744744e-14
"Vn_D1:pwr" 0.000000000000000e+00
"Vn_GND:v" 0.000000000000000e+00
"Vn_GND:i" 2.548642916852863e-10
"Vn_GND:pwr" 0.000000000000000e+00
"Vn_SD:v" 0.000000000000000e+00
"Vn_SD:i" -5.109738996684598e-13
"Vn_SD:pwr" -0.000000000000000e+00
"Vn_VDD:v" 1.200000000000000e+00
"Vn_VDD:i" -2.544787735251624e-10
"Vn_VDD:pwr" -3.053745282301949e-10
"Vn_Z:v" 0.000000000000000e+00
"Vn_Z:i" -4.328238823752463e-15
"Vn_Z:pwr" -0.000000000000000e+00
"n_Z" 1.199999494889081e+00
"n_D1" 0.000000000000000e+00
"n_SD" 1.200000000000000e+00
"Vn_D1:n" -7.485248270744744e-14
"Vn_D1:p" 7.485248270744744e-14
"Vn_GND:n" -2.548642916852863e-10
"Vn_GND:p" 2.548642916852863e-10
"Vn_SD:n" 5.109738996684598e-13
"Vn_SD:p" -5.109738996684598e-13
"Vn_VDD:n" 2.544787735251624e-10
"Vn_VDD:p" -2.544787735251624e-10
"Vn_Z:n" 4.328238823752463e-15
"Vn_Z:p" -4.328238823752463e-15
"time" 1.170000000000000e-10
"Vn_D1:v" 0.000000000000000e+00
"Vn_D1:i" 7.504830533957168e-14
"Vn_D1:pwr" 0.000000000000000e+00
"Vn_GND:v" 0.000000000000000e+00
"Vn_GND:i" 2.548656960375314e-10
"Vn_GND:pwr" 0.000000000000000e+00
"Vn_SD:v" 0.000000000000000e+00
"Vn_SD:i" -5.107094298574716e-13
"Vn_SD:pwr" -0.000000000000000e+00
"Vn_VDD:v" 1.200000000000000e+00
"Vn_VDD:i" -2.544836115603926e-10
"Vn_VDD:pwr" -3.053803338724711e-10
"Vn_Z:v" 0.000000000000000e+00
"Vn_Z:i" -1.354833915654314e-15
"Vn_Z:pwr" -0.000000000000000e+00
"n_Z" 1.199999494865063e+00
"n_D1" 0.000000000000000e+00
"n_SD" 1.200000000000000e+00
"Vn_D1:n" -7.504830533957168e-14
"Vn_D1:p" 7.504830533957168e-14
"Vn_GND:n" -2.548656960375314e-10
"Vn_GND:p" 2.548656960375314e-10
"Vn_SD:n" 5.107094298574716e-13
"Vn_SD:p" -5.107094298574716e-13
"Vn_VDD:n" 2.544836115603926e-10
"Vn_VDD:p" -2.544836115603926e-10
"Vn_Z:n" 1.354833915654314e-15
"Vn_Z:p" -1.354833915654314e-15
"time" 2.730000000000000e-10
"Vn_D1:v" 0.000000000000000e+00
"Vn_D1:i" 7.521456487776124e-14
"Vn_D1:pwr" 0.000000000000000e+00
"Vn_GND:v" 0.000000000000000e+00
"Vn_GND:i" 2.548665394522757e-10
"Vn_GND:pwr" 0.000000000000000e+00
"Vn_SD:v" 0.000000000000000e+00
"Vn_SD:i" -5.105207814128087e-13
"Vn_SD:pwr" -0.000000000000000e+00
"Vn_VDD:v" 1.200000000000000e+00
"Vn_VDD:i" -2.544866611812793e-10
"Vn_VDD:pwr" -3.053839934175352e-10
"Vn_Z:v" 0.000000000000000e+00
"Vn_Z:i" 4.963773790451281e-16
"Vn_Z:pwr" 0.000000000000000e+00
"n_Z" 1.199999494849845e+00
"n_D1" 0.000000000000000e+00
"n_SD" 1.200000000000000e+00
"Vn_D1:n" -7.521456487776124e-14
"Vn_D1:p" 7.521456487776124e-14
"Vn_GND:n" -2.548665394522757e-10
"Vn_GND:p" 2.548665394522757e-10
"Vn_SD:n" 5.105207814128087e-13
"Vn_SD:p" -5.105207814128087e-13
"Vn_VDD:n" 2.544866611812793e-10
"Vn_VDD:p" -2.544866611812793e-10
"Vn_Z:n" -4.963773790451281e-16
"Vn_Z:p" 4.963773790451281e-16
"time" 5.850000000000002e-10
"Vn_D1:v" 0.000000000000000e+00
"Vn_D1:i" 7.514519975728535e-14
"Vn_D1:pwr" 0.000000000000000e+00
"Vn_GND:v" 0.000000000000000e+00
"Vn_GND:i" 2.548661505123467e-10
"Vn_GND:pwr" 0.000000000000000e+00
"Vn_SD:v" 0.000000000000000e+00
"Vn_SD:i" -5.106004770114321e-13
"Vn_SD:pwr" -0.000000000000000e+00
"Vn_VDD:v" 1.200000000000000e+00
"Vn_VDD:i" -2.544853188481836e-10
"Vn_VDD:pwr" -3.053823826178203e-10
"Vn_Z:v" 0.000000000000000e+00
"Vn_Z:i" -3.082272385768803e-16
"Vn_Z:pwr" -0.000000000000000e+00
"n_Z" 1.199999494856516e+00
"n_D1" 0.000000000000000e+00
"n_SD" 1.200000000000000e+00
"Vn_D1:n" -7.514519975728535e-14
"Vn_D1:p" 7.514519975728535e-14
"Vn_GND:n" -2.548661505123467e-10
"Vn_GND:p" 2.548661505123467e-10
"Vn_SD:n" 5.106004770114321e-13
"Vn_SD:p" -5.106004770114321e-13
"Vn_VDD:n" 2.544853188481836e-10
"Vn_VDD:p" -2.544853188481836e-10
"Vn_Z:n" 3.082272385768803e-16
"Vn_Z:p" -3.082272385768803e-16
"time" 1.209000000000000e-09
"Vn_D1:v" 0.000000000000000e+00
"Vn_D1:i" 7.519150196550764e-14
"Vn_D1:pwr" 0.000000000000000e+00
"Vn_GND:v" 0.000000000000000e+00
"Vn_GND:i" 2.548663693735109e-10
"Vn_GND:pwr" 0.000000000000000e+00
"Vn_SD:v" 0.000000000000000e+00
"Vn_SD:i" -5.105467111370254e-13
"Vn_SD:pwr" -0.000000000000000e+00
"Vn_VDD:v" 1.200000000000000e+00
"Vn_VDD:i" -2.544861946557871e-10
"Vn_VDD:pwr" -3.053834335869445e-10
"Vn_Z:v" 0.000000000000000e+00
"Vn_Z:i" 2.466079950800235e-16
"Vn_Z:pwr" 0.000000000000000e+00
"n_Z" 1.199999494852147e+00
"n_D1" 0.000000000000000e+00
"n_SD" 1.200000000000000e+00
"Vn_D1:n" -7.519150196550764e-14
"Vn_D1:p" 7.519150196550764e-14
"Vn_GND:n" -2.548663693735109e-10
"Vn_GND:p" 2.548663693735109e-10
"Vn_SD:n" 5.105467111370254e-13
"Vn_SD:p" -5.105467111370254e-13
"Vn_VDD:n" 2.544861946557871e-10
"Vn_VDD:p" -2.544861946557871e-10
"Vn_Z:n" -2.466079950800235e-16
"Vn_Z:p" 2.466079950800235e-16
"time" 1.989000000000000e-09
"Vn_D1:v" 0.000000000000000e+00
"Vn_D1:i" 7.515488629015846e-14
"Vn_D1:pwr" 0.000000000000000e+00
"Vn_GND:v" 0.000000000000000e+00
"Vn_GND:i" 2.548661164827806e-10
"Vn_GND:pwr" 0.000000000000000e+00
"Vn_SD:v" 0.000000000000000e+00
"Vn_SD:i" -5.105895773320764e-13
"Vn_SD:pwr" -0.000000000000000e+00
"Vn_VDD:v" 1.200000000000000e+00
"Vn_VDD:i" -2.544854119251971e-10
"Vn_VDD:pwr" -3.053824943102365e-10
"Vn_Z:v" 0.000000000000000e+00
"Vn_Z:i" -2.030190485740543e-16
"Vn_Z:pwr" -0.000000000000000e+00
"n_Z" 1.199999494856010e+00
"n_D1" 0.000000000000000e+00
"n_SD" 1.200000000000000e+00
"Vn_D1:n" -7.515488629015846e-14
"Vn_D1:p" 7.515488629015846e-14
"Vn_GND:n" -2.548661164827806e-10
"Vn_GND:p" 2.548661164827806e-10
"Vn_SD:n" 5.105895773320764e-13
"Vn_SD:p" -5.105895773320764e-13
"Vn_VDD:n" 2.544854119251971e-10
"Vn_VDD:p" -2.544854119251971e-10
"Vn_Z:n" 2.030190485740543e-16
"Vn_Z:p" -2.030190485740543e-16
"time" 2.769000000000001e-09
"Vn_D1:v" 0.000000000000000e+00
"Vn_D1:i" 7.518463430048513e-14
"Vn_D1:pwr" 0.000000000000000e+00
"Vn_GND:v" 0.000000000000000e+00
"Vn_GND:i" 2.548662436773437e-10
"Vn_GND:pwr" 0.000000000000000e+00
"Vn_SD:v" 0.000000000000000e+00
"Vn_SD:i" -5.105544314982443e-13
"Vn_SD:pwr" -0.000000000000000e+00
"Vn_VDD:v" 1.200000000000000e+00
"Vn_VDD:i" -2.544859757827383e-10
"Vn_VDD:pwr" -3.053831709392860e-10
"Vn_Z:v" 0.000000000000000e+00
"Vn_Z:i" 1.708478387070834e-16
"Vn_Z:pwr" 0.000000000000000e+00
"n_Z" 1.199999494853159e+00
"n_D1" 0.000000000000000e+00
"n_SD" 1.200000000000000e+00
"Vn_D1:n" -7.518463430048513e-14
"Vn_D1:p" 7.518463430048513e-14
"Vn_GND:n" -2.548662436773437e-10
"Vn_GND:p" 2.548662436773437e-10
"Vn_SD:n" 5.105544314982443e-13
"Vn_SD:p" -5.105544314982443e-13
"Vn_VDD:n" 2.544859757827383e-10
"Vn_VDD:p" -2.544859757827383e-10
"Vn_Z:n" -1.708478387070834e-16
"Vn_Z:p" 1.708478387070834e-16
"time" 3.000000000000000e-09
"Vn_D1:v" 0.000000000000000e+00
"Vn_D1:i" 7.516524756464281e-14
"Vn_D1:pwr" 0.000000000000000e+00
"Vn_GND:v" 0.000000000000000e+00
"Vn_GND:i" 2.548661091808738e-10
"Vn_GND:pwr" 0.000000000000000e+00
"Vn_SD:v" 0.000000000000000e+00
"Vn_SD:i" -5.105779782051894e-13
"Vn_SD:pwr" -0.000000000000000e+00
"Vn_VDD:v" 1.200000000000000e+00
"Vn_VDD:i" -2.544855373428094e-10
"Vn_VDD:pwr" -3.053826448113712e-10
"Vn_Z:v" 0.000000000000000e+00
"Vn_Z:i" -8.790423531038751e-17
"Vn_Z:pwr" -0.000000000000000e+00
"n_Z" 1.199999494855336e+00
"n_D1" 0.000000000000000e+00
"n_SD" 1.200000000000000e+00
"Vn_D1:n" -7.516524756464281e-14
"Vn_D1:p" 7.516524756464281e-14
"Vn_GND:n" -2.548661091808738e-10
"Vn_GND:p" 2.548661091808738e-10
"Vn_SD:n" 5.105779782051894e-13
"Vn_SD:p" -5.105779782051894e-13
"Vn_VDD:n" 2.544855373428094e-10
"Vn_VDD:p" -2.544855373428094e-10
"Vn_Z:n" 8.790423531038751e-17
"Vn_Z:p" -8.790423531038751e-17
"time" 3.010000000000000e-09
"Vn_D1:v" 0.000000000000000e+00
"Vn_D1:i" 7.516529926053798e-14
"Vn_D1:pwr" 0.000000000000000e+00
"Vn_GND:v" 0.000000000000000e+00
"Vn_GND:i" 2.548661188470938e-10
"Vn_GND:pwr" 0.000000000000000e+00
"Vn_SD:v" 0.000000000000000e+00
"Vn_SD:i" -5.105769633922180e-13
"Vn_SD:pwr" -0.000000000000000e+00
"Vn_VDD:v" 1.200000000000000e+00
"Vn_VDD:i" -2.544855702147221e-10
"Vn_VDD:pwr" -3.053826842576665e-10
"Vn_Z:v" 0.000000000000000e+00
"Vn_Z:i" -6.852242045400158e-17
"Vn_Z:pwr" -0.000000000000000e+00
"n_Z" 1.199999494855180e+00
"n_D1" 0.000000000000000e+00
"n_SD" 1.200000000000000e+00
"Vn_D1:n" -7.516529926053798e-14
"Vn_D1:p" 7.516529926053798e-14
"Vn_GND:n" -2.548661188470938e-10
"Vn_GND:p" 2.548661188470938e-10
"Vn_SD:n" 5.105769633922180e-13
"Vn_SD:p" -5.105769633922180e-13
"Vn_VDD:n" 2.544855702147221e-10
"Vn_VDD:p" -2.544855702147221e-10
"Vn_Z:n" 6.852242045400158e-17
"Vn_Z:p" -6.852242045400158e-17
"time" 3.030000000000000e-09
"Vn_D1:v" 0.000000000000000e+00
"Vn_D1:i" 7.516718239553847e-14
"Vn_D1:pwr" 0.000000000000000e+00
"Vn_GND:v" 0.000000000000000e+00
"Vn_GND:i" 2.548661290852139e-10
"Vn_GND:pwr" 0.000000000000000e+00
"Vn_SD:v" 0.000000000000000e+00
"Vn_SD:i" -5.105748293896590e-13
"Vn_SD:pwr" -0.000000000000000e+00
"Vn_VDD:v" 1.200000000000000e+00
"Vn_VDD:i" -2.544856092733269e-10
"Vn_VDD:pwr" -3.053827311279922e-10
"Vn_Z:v" 0.000000000000000e+00
"Vn_Z:i" -4.368289077635526e-17
"Vn_Z:pwr" -0.000000000000000e+00
"n_Z" 1.199999494854982e+00
"n_D1" 0.000000000000000e+00
"n_SD" 1.200000000000000e+00
"Vn_D1:n" -7.516718239553847e-14
"Vn_D1:p" 7.516718239553847e-14
"Vn_GND:n" -2.548661290852139e-10
"Vn_GND:p" 2.548661290852139e-10
"Vn_SD:n" 5.105748293896590e-13
"Vn_SD:p" -5.105748293896590e-13
"Vn_VDD:n" 2.544856092733269e-10
"Vn_VDD:p" -2.544856092733269e-10
"Vn_Z:n" 4.368289077635526e-17
"Vn_Z:p" -4.368289077635526e-17
"time" 3.070000000000001e-09
"Vn_D1:v" 0.000000000000000e+00
"Vn_D1:i" 7.516995631038768e-14
"Vn_D1:pwr" 0.000000000000000e+00
"Vn_GND:v" 0.000000000000000e+00
"Vn_GND:i" 2.548661410201120e-10
"Vn_GND:pwr" 0.000000000000000e+00
"Vn_SD:v" 0.000000000000000e+00
"Vn_SD:i" -5.105717552829565e-13
"Vn_SD:pwr" -0.000000000000000e+00
"Vn_VDD:v" 1.200000000000000e+00
"Vn_VDD:i" -2.544856615171887e-10
"Vn_VDD:pwr" -3.053827938206265e-10
"Vn_Z:v" 0.000000000000000e+00
"Vn_Z:i" -1.228343650861731e-17
"Vn_Z:pwr" -0.000000000000000e+00
"n_Z" 1.199999494854728e+00
"n_D1" 0.000000000000000e+00
"n_SD" 1.200000000000000e+00
"Vn_D1:n" -7.516995631038768e-14
"Vn_D1:p" 7.516995631038768e-14
"Vn_GND:n" -2.548661410201120e-10
"Vn_GND:p" 2.548661410201120e-10
"Vn_SD:n" 5.105717552829565e-13
"Vn_SD:p" -5.105717552829565e-13
"Vn_VDD:n" 2.544856615171887e-10
"Vn_VDD:p" -2.544856615171887e-10
"Vn_Z:n" 1.228343650861731e-17
"Vn_Z:p" -1.228343650861731e-17
"time" 3.150000000000003e-09
"Vn_D1:v" 0.000000000000000e+00
"Vn_D1:i" 7.517167002741014e-14
"Vn_D1:pwr" 0.000000000000000e+00
"Vn_GND:v" 0.000000000000000e+00
"Vn_GND:i" 2.548661440541713e-10
"Vn_GND:pwr" 0.000000000000000e+00
"Vn_SD:v" 0.000000000000000e+00
"Vn_SD:i" -5.105699555683609e-13
"Vn_SD:pwr" -0.000000000000000e+00
"Vn_VDD:v" 1.200000000000000e+00
"Vn_VDD:i" -2.544856744444093e-10
"Vn_VDD:pwr" -3.053828093332912e-10
"Vn_Z:v" 0.000000000000000e+00
"Vn_Z:i" 2.750592101987314e-18
"Vn_Z:pwr" 0.000000000000000e+00
"n_Z" 1.199999494854641e+00
"n_D1" 0.000000000000000e+00
"n_SD" 1.200000000000000e+00
"Vn_D1:n" -7.517167002741014e-14
"Vn_D1:p" 7.517167002741014e-14
"Vn_GND:n" -2.548661440541713e-10
"Vn_GND:p" 2.548661440541713e-10
"Vn_SD:n" 5.105699555683609e-13
"Vn_SD:p" -5.105699555683609e-13
"Vn_VDD:n" 2.544856744444093e-10
"Vn_VDD:p" -2.544856744444093e-10
"Vn_Z:n" -2.750592101987314e-18
"Vn_Z:p" 2.750592101987314e-18
"time" 3.310000000000005e-09
"Vn_D1:v" 0.000000000000000e+00
"Vn_D1:i" 7.517092174662947e-14
"Vn_D1:pwr" 0.000000000000000e+00
"Vn_GND:v" 0.000000000000000e+00
"Vn_GND:i" 2.548661320077473e-10
"Vn_GND:pwr" 0.000000000000000e+00
"Vn_SD:v" 0.000000000000000e+00
"Vn_SD:i" -5.105705775839871e-13
"Vn_SD:pwr" -0.000000000000000e+00
"Vn_VDD:v" 1.200000000000000e+00
"Vn_VDD:i" -2.544856681907741e-10
"Vn_VDD:pwr" -3.053828018289289e-10
"Vn_Z:v" 0.000000000000000e+00
"Vn_Z:i" -2.473502258762321e-19
"Vn_Z:pwr" -0.000000000000000e+00
"n_Z" 1.199999494854686e+00
"n_D1" 0.000000000000000e+00
"n_SD" 1.200000000000000e+00
"Vn_D1:n" -7.517092174662947e-14
"Vn_D1:p" 7.517092174662947e-14
"Vn_GND:n" -2.548661320077473e-10
"Vn_GND:p" 2.548661320077473e-10
"Vn_SD:n" 5.105705775839871e-13
"Vn_SD:p" -5.105705775839871e-13
"Vn_VDD:n" 2.544856681907741e-10
"Vn_VDD:p" -2.544856681907741e-10
"Vn_Z:n" 2.473502258762321e-19
"Vn_Z:p" -2.473502258762321e-19
"time" 3.630000000000011e-09
"Vn_D1:v" 0.000000000000000e+00
"Vn_D1:i" 7.517176816288060e-14
"Vn_D1:pwr" 0.000000000000000e+00
"Vn_GND:v" 0.000000000000000e+00
"Vn_GND:i" 2.548661164992800e-10
"Vn_GND:pwr" 0.000000000000000e+00
"Vn_SD:v" 0.000000000000000e+00
"Vn_SD:i" -5.105698981362950e-13
"Vn_SD:pwr" -0.000000000000000e+00
"Vn_VDD:v" 1.200000000000000e+00
"Vn_VDD:i" -2.544856463541129e-10
"Vn_VDD:pwr" -3.053827756249354e-10
"Vn_Z:v" 0.000000000000000e+00
"Vn_Z:i" 2.463682872948091e-18
"Vn_Z:pwr" 0.000000000000000e+00
"n_Z" 1.199999494854767e+00
"n_D1" 0.000000000000000e+00
"n_SD" 1.200000000000000e+00
"Vn_D1:n" -7.517176816288060e-14
"Vn_D1:p" 7.517176816288060e-14
"Vn_GND:n" -2.548661164992800e-10
"Vn_GND:p" 2.548661164992800e-10
"Vn_SD:n" 5.105698981362950e-13
"Vn_SD:p" -5.105698981362950e-13
"Vn_VDD:n" 2.544856463541129e-10
"Vn_VDD:p" -2.544856463541129e-10
"Vn_Z:n" -2.463682872948091e-18
"Vn_Z:p" 2.463682872948091e-18
"time" 4.270000000000022e-09
"Vn_D1:v" 0.000000000000000e+00
"Vn_D1:i" 7.517088255764191e-14
"Vn_D1:pwr" 0.000000000000000e+00
"Vn_GND:v" 0.000000000000000e+00
"Vn_GND:i" 2.548660760775492e-10
"Vn_GND:pwr" 0.000000000000000e+00
"Vn_SD:v" 0.000000000000000e+00
"Vn_SD:i" -5.105705660909039e-13
"Vn_SD:pwr" -0.000000000000000e+00
"Vn_VDD:v" 1.200000000000000e+00
"Vn_VDD:i" -2.544856145923758e-10
"Vn_VDD:pwr" -3.053827375108509e-10
"Vn_Z:v" 0.000000000000000e+00
"Vn_Z:i" -3.585449522152973e-19
"Vn_Z:pwr" -0.000000000000000e+00
"n_Z" 1.199999494854920e+00
"n_D1" 0.000000000000000e+00
"n_SD" 1.200000000000000e+00
"Vn_D1:n" -7.517088255764191e-14
"Vn_D1:p" 7.517088255764191e-14
"Vn_GND:n" -2.548660760775492e-10
"Vn_GND:p" 2.548660760775492e-10
"Vn_SD:n" 5.105705660909039e-13
"Vn_SD:p" -5.105705660909039e-13
"Vn_VDD:n" 2.544856145923758e-10
"Vn_VDD:p" -2.544856145923758e-10
"Vn_Z:n" 3.585449522152973e-19
"Vn_Z:p" -3.585449522152973e-19
"time" 5.050000000000022e-09
"Vn_D1:v" 0.000000000000000e+00
"Vn_D1:i" 7.517173918796146e-14
"Vn_D1:pwr" 0.000000000000000e+00
"Vn_GND:v" 0.000000000000000e+00
"Vn_GND:i" 2.548660335559504e-10
"Vn_GND:pwr" 0.000000000000000e+00
"Vn_SD:v" 0.000000000000000e+00
"Vn_SD:i" -5.105699842525935e-13
"Vn_SD:pwr" -0.000000000000000e+00
"Vn_VDD:v" 1.200000000000000e+00
"Vn_VDD:i" -2.544855559904863e-10
"Vn_VDD:pwr" -3.053826671885836e-10
"Vn_Z:v" 0.000000000000000e+00
"Vn_Z:i" 2.776292303317194e-18
"Vn_Z:pwr" 0.000000000000000e+00
"n_Z" 1.199999494855134e+00
"n_D1" 0.000000000000000e+00
"n_SD" 1.200000000000000e+00
"Vn_D1:n" -7.517173918796146e-14
"Vn_D1:p" 7.517173918796146e-14
"Vn_GND:n" -2.548660335559504e-10
"Vn_GND:p" 2.548660335559504e-10
"Vn_SD:n" 5.105699842525935e-13
"Vn_SD:p" -5.105699842525935e-13
"Vn_VDD:n" 2.544855559904863e-10
"Vn_VDD:p" -2.544855559904863e-10
"Vn_Z:n" -2.776292303317194e-18
"Vn_Z:p" 2.776292303317194e-18
"time" 5.830000000000022e-09
"Vn_D1:v" 0.000000000000000e+00
"Vn_D1:i" 7.517087446941016e-14
"Vn_D1:pwr" 0.000000000000000e+00
"Vn_GND:v" 0.000000000000000e+00
"Vn_GND:i" 2.548659859338230e-10
"Vn_GND:pwr" 0.000000000000000e+00
"Vn_SD:v" 0.000000000000000e+00
"Vn_SD:i" -5.105705277032355e-13
"Vn_SD:pwr" -0.000000000000000e+00
"Vn_VDD:v" 1.200000000000000e+00
"Vn_VDD:i" -2.544855343860830e-10
"Vn_VDD:pwr" -3.053826412632996e-10
"Vn_Z:v" 0.000000000000000e+00
"Vn_Z:i" -9.951226697677918e-19
"Vn_Z:pwr" -0.000000000000000e+00
"n_Z" 1.199999494855292e+00
"n_D1" 0.000000000000000e+00
"n_SD" 1.200000000000000e+00
"Vn_D1:n" -7.517087446941016e-14
"Vn_D1:p" 7.517087446941016e-14
"Vn_GND:n" -2.548659859338230e-10
"Vn_GND:p" 2.548659859338230e-10
"Vn_SD:n" 5.105705277032355e-13
"Vn_SD:p" -5.105705277032355e-13
"Vn_VDD:n" 2.544855343860830e-10
"Vn_VDD:p" -2.544855343860830e-10
"Vn_Z:n" 9.951226697677918e-19
"Vn_Z:p" -9.951226697677918e-19
"time" 6.010000000000000e-09
"Vn_D1:v" 0.000000000000000e+00
"Vn_D1:i" 7.517204495262180e-14
"Vn_D1:pwr" 0.000000000000000e+00
"Vn_GND:v" 0.000000000000000e+00
"Vn_GND:i" 2.548659788294767e-10
"Vn_GND:pwr" 0.000000000000000e+00
"Vn_SD:v" 0.000000000000000e+00
"Vn_SD:i" -5.105697793025251e-13
"Vn_SD:pwr" -0.000000000000000e+00
"Vn_VDD:v" 1.200000000000000e+00
"Vn_VDD:i" -2.544854993997303e-10
"Vn_VDD:pwr" -3.053825992796763e-10
"Vn_Z:v" 0.000000000000000e+00
"Vn_Z:i" 4.583061545879345e-18
"Vn_Z:pwr" 0.000000000000000e+00
"n_Z" 1.199999494855366e+00
"n_D1" 0.000000000000000e+00
"n_SD" 1.200000000000000e+00
"Vn_D1:n" -7.517204495262180e-14
"Vn_D1:p" 7.517204495262180e-14
"Vn_GND:n" -2.548659788294767e-10
"Vn_GND:p" 2.548659788294767e-10
"Vn_SD:n" 5.105697793025251e-13
"Vn_SD:p" -5.105697793025251e-13
"Vn_VDD:n" 2.544854993997303e-10
"Vn_VDD:p" -2.544854993997303e-10
"Vn_Z:n" -4.583061545879345e-18
"Vn_Z:p" 4.583061545879345e-18
"time" 6.019999743400000e-09
"Vn_D1:v" 0.000000000000000e+00
"Vn_D1:i" 7.517078622693342e-14
"Vn_D1:pwr" 0.000000000000000e+00
"Vn_GND:v" 0.000000000000000e+00
"Vn_GND:i" 2.548659757674156e-10
"Vn_GND:pwr" 0.000000000000000e+00
"Vn_SD:v" 0.000000000000000e+00
"Vn_SD:i" -5.105703148955323e-13
"Vn_SD:pwr" -0.000000000000000e+00
"Vn_VDD:v" 1.200000000000000e+00
"Vn_VDD:i" -2.544855088751801e-10
"Vn_VDD:pwr" -3.053826106502162e-10
"Vn_Z:v" 0.000000000000000e+00
"Vn_Z:i" 1.082118203121568e-18
"Vn_Z:pwr" 0.000000000000000e+00
"n_Z" 1.199999494855368e+00
"n_D1" 0.000000000000000e+00
"n_SD" 1.200000000000000e+00
"Vn_D1:n" -7.517078622693342e-14
"Vn_D1:p" 7.517078622693342e-14
"Vn_GND:n" -2.548659757674156e-10
"Vn_GND:p" 2.548659757674156e-10
"Vn_SD:n" 5.105703148955323e-13
"Vn_SD:p" -5.105703148955323e-13
"Vn_VDD:n" 2.544855088751801e-10
"Vn_VDD:p" -2.544855088751801e-10
"Vn_Z:n" -1.082118203121568e-18
"Vn_Z:p" 1.082118203121568e-18
"time" 6.020000000000000e-09
"Vn_D1:v" 0.000000000000000e+00
"Vn_D1:i" -1.075155978014378e-06
"Vn_D1:pwr" -0.000000000000000e+00
"Vn_GND:v" 0.000000000000000e+00
"Vn_GND:i" 1.931705632244531e-07
"Vn_GND:pwr" 0.000000000000000e+00
"Vn_SD:v" 0.000000000000000e+00
"Vn_SD:i" 5.439224183360047e-11
"Vn_SD:pwr" 0.000000000000000e+00
"Vn_VDD:v" 1.200000000000000e+00
"Vn_VDD:i" 8.819306864845657e-07
"Vn_VDD:pwr" 1.058316823781479e-06
"Vn_Z:v" 0.000000000000000e+00
"Vn_Z:i" 2.811007891846002e-13
"Vn_Z:pwr" 0.000000000000000e+00
"n_Z" 1.199999494855384e+00
"n_D1" 2.456722197575741e-07
"n_SD" 1.200000000000000e+00
"Vn_D1:n" 1.075155978014378e-06
"Vn_D1:p" -1.075155978014378e-06
"Vn_GND:n" -1.931705632244531e-07
"Vn_GND:p" 1.931705632244531e-07
"Vn_SD:n" -5.439224183360047e-11
"Vn_SD:p" 5.439224183360047e-11
"Vn_VDD:n" -8.819306864845657e-07
"Vn_VDD:p" 8.819306864845657e-07
"Vn_Z:n" -2.811007891846002e-13
"Vn_Z:p" 2.811007891846002e-13
"time" 6.020000513200001e-09
"Vn_D1:v" 0.000000000000000e+00
"Vn_D1:i" -1.076410567450828e-06
"Vn_D1:pwr" -0.000000000000000e+00
"Vn_GND:v" 0.000000000000000e+00
"Vn_GND:i" 1.933874227177398e-07
"Vn_GND:pwr" 0.000000000000000e+00
"Vn_SD:v" 0.000000000000000e+00
"Vn_SD:i" 1.638504780967171e-10
"Vn_SD:pwr" 0.000000000000000e+00
"Vn_VDD:v" 1.200000000000000e+00
"Vn_VDD:i" 8.828572916366279e-07
"Vn_VDD:pwr" 1.059428749963953e-06
"Vn_Z:v" 0.000000000000000e+00
"Vn_Z:i" 1.949839211051221e-12
"Vn_Z:pwr" 0.000000000000000e+00
"n_Z" 1.199999494855612e+00
"n_D1" 7.370166592727224e-07
"n_SD" 1.200000000000000e+00
"Vn_D1:n" 1.076410567450828e-06
"Vn_D1:p" -1.076410567450828e-06
"Vn_GND:n" -1.933874227177398e-07
"Vn_GND:p" 1.933874227177398e-07
"Vn_SD:n" -1.638504780967171e-10
"Vn_SD:p" 1.638504780967171e-10
"Vn_VDD:n" -8.828572916366279e-07
"Vn_VDD:p" 8.828572916366279e-07
"Vn_Z:n" -1.949839211051221e-12
"Vn_Z:p" 1.949839211051221e-12
"time" 6.020001539600004e-09
"Vn_D1:v" 0.000000000000000e+00
"Vn_D1:i" -1.078910639391646e-06
"Vn_D1:pwr" -0.000000000000000e+00
"Vn_GND:v" 0.000000000000000e+00
"Vn_GND:i" 1.938196714979995e-07
"Vn_GND:pwr" 0.000000000000000e+00
"Vn_SD:v" 0.000000000000000e+00
"Vn_SD:i" 3.820701999421893e-10
"Vn_SD:pwr" 0.000000000000000e+00
"Vn_VDD:v" 1.200000000000000e+00
"Vn_VDD:i" 8.847013739940465e-07
"Vn_VDD:pwr" 1.061641648792856e-06
"Vn_Z:v" 0.000000000000000e+00
"Vn_Z:i" 7.465240911184781e-12
"Vn_Z:pwr" 0.000000000000000e+00
"n_Z" 1.199999494856710e+00
"n_D1" 1.719705538303019e-06
"n_SD" 1.200000000000000e+00
"Vn_D1:n" 1.078910639391646e-06
"Vn_D1:p" -1.078910639391646e-06
"Vn_GND:n" -1.938196714979995e-07
"Vn_GND:p" 1.938196714979995e-07
"Vn_SD:n" -3.820701999421893e-10
"Vn_SD:p" 3.820701999421893e-10
"Vn_VDD:n" -8.847013739940465e-07
"Vn_VDD:p" 8.847013739940465e-07
"Vn_Z:n" -7.465240911184781e-12
"Vn_Z:p" 7.465240911184781e-12
"time" 6.020003592400008e-09
"Vn_D1:v" 0.000000000000000e+00
"Vn_D1:i" -1.083856409352645e-06
"Vn_D1:pwr" -0.000000000000000e+00
"Vn_GND:v" 0.000000000000000e+00
"Vn_GND:i" 1.946754760046898e-07
"Vn_GND:pwr" 0.000000000000000e+00
"Vn_SD:v" 0.000000000000000e+00
"Vn_SD:i" 8.143677723470222e-10
"Vn_SD:pwr" 0.000000000000000e+00
"Vn_VDD:v" 1.200000000000000e+00
"Vn_VDD:i" 8.883353619437426e-07
"Vn_VDD:pwr" 1.066002434332491e-06
"Vn_Z:v" 0.000000000000000e+00
"Vn_Z:i" 3.115303429052048e-11
"Vn_Z:pwr" 0.000000000000000e+00
"n_Z" 1.199999494865718e+00
"n_D1" 3.685083296363612e-06
"n_SD" 1.200000000000000e+00
"Vn_D1:n" 1.083856409352645e-06
"Vn_D1:p" -1.083856409352645e-06
"Vn_GND:n" -1.946754760046898e-07
"Vn_GND:p" 1.946754760046898e-07
"Vn_SD:n" -8.143677723470222e-10
"Vn_SD:p" 8.143677723470222e-10
"Vn_VDD:n" -8.883353619437426e-07
"Vn_VDD:p" 8.883353619437426e-07
"Vn_Z:n" -3.115303429052048e-11
"Vn_Z:p" 3.115303429052048e-11
"time" 6.020007698000017e-09
"Vn_D1:v" 0.000000000000000e+00
"Vn_D1:i" -1.093535525327951e-06
"Vn_D1:pwr" -0.000000000000000e+00
"Vn_GND:v" 0.000000000000000e+00
"Vn_GND:i" 1.963527219001264e-07
"Vn_GND:pwr" 0.000000000000000e+00
"Vn_SD:v" 0.000000000000000e+00
"Vn_SD:i" 1.662594346911659e-09
"Vn_SD:pwr" 0.000000000000000e+00
"Vn_VDD:v" 1.200000000000000e+00
"Vn_VDD:i" 8.953948810433883e-07
"Vn_VDD:pwr" 1.074473857252066e-06
"Vn_Z:v" 0.000000000000000e+00
"Vn_Z:i" 1.252691725413336e-10
"Vn_Z:pwr" 0.000000000000000e+00
"n_Z" 1.199999494938696e+00
"n_D1" 7.615838812484797e-06
"n_SD" 1.200000000000000e+00
"Vn_D1:n" 1.093535525327951e-06
"Vn_D1:p" -1.093535525327951e-06
"Vn_GND:n" -1.963527219001264e-07
"Vn_GND:p" 1.963527219001264e-07
"Vn_SD:n" -1.662594346911659e-09
"Vn_SD:p" 1.662594346911659e-09
"Vn_VDD:n" -8.953948810433883e-07
"Vn_VDD:p" 8.953948810433883e-07
"Vn_Z:n" -1.252691725413336e-10
"Vn_Z:p" 1.252691725413336e-10
"time" 6.020015909200036e-09
"Vn_D1:v" 0.000000000000000e+00
"Vn_D1:i" -1.112079781871762e-06
"Vn_D1:pwr" -0.000000000000000e+00
"Vn_GND:v" 0.000000000000000e+00
"Vn_GND:i" 1.995738571735183e-07
"Vn_GND:pwr" 0.000000000000000e+00
"Vn_SD:v" 0.000000000000000e+00
"Vn_SD:i" 3.295316529344262e-09
"Vn_SD:pwr" 0.000000000000000e+00
"Vn_VDD:v" 1.200000000000000e+00
"Vn_VDD:i" 9.087376423813166e-07
"Vn_VDD:pwr" 1.090485170857580e-06
"Vn_Z:v" 0.000000000000000e+00
"Vn_Z:i" 4.729147614088792e-10
"Vn_Z:pwr" 0.000000000000000e+00
"n_Z" 1.199999495496856e+00
"n_D1" 1.547734984472717e-05
"n_SD" 1.200000000000000e+00
"Vn_D1:n" 1.112079781871762e-06
"Vn_D1:p" -1.112079781871762e-06
"Vn_GND:n" -1.995738571735183e-07
"Vn_GND:p" 1.995738571735183e-07
"Vn_SD:n" -3.295316529344262e-09
"Vn_SD:p" 3.295316529344262e-09
"Vn_VDD:n" -9.087376423813166e-07
"Vn_VDD:p" 9.087376423813166e-07
"Vn_Z:n" -4.729147614088792e-10
"Vn_Z:p" 4.729147614088792e-10
"time" 6.020032331600072e-09
"Vn_D1:v" 0.000000000000000e+00
"Vn_D1:i" -1.137002769614841e-06
"Vn_D1:pwr" -0.000000000000000e+00
"Vn_GND:v" 0.000000000000000e+00
"Vn_GND:i" 2.055351037176076e-07
"Vn_GND:pwr" 0.000000000000000e+00
"Vn_SD:v" 0.000000000000000e+00
"Vn_SD:i" 6.321779222148446e-09
"Vn_SD:pwr" 0.000000000000000e+00
"Vn_VDD:v" 1.200000000000000e+00
"Vn_VDD:i" 9.235098430458159e-07
"Vn_VDD:pwr" 1.108211811654979e-06
"Vn_Z:v" 0.000000000000000e+00
"Vn_Z:i" 1.635984848548414e-09
"Vn_Z:pwr" 0.000000000000000e+00
"n_Z" 1.199999499432446e+00
"n_D1" 3.120037190921192e-05
"n_SD" 1.200000000000000e+00
"Vn_D1:n" 1.137002769614841e-06
"Vn_D1:p" -1.137002769614841e-06
"Vn_GND:n" -2.055351037176076e-07
"Vn_GND:p" 2.055351037176076e-07
"Vn_SD:n" -6.321779222148446e-09
"Vn_SD:p" 6.321779222148446e-09
"Vn_VDD:n" -9.235098430458159e-07
"Vn_VDD:p" 9.235098430458159e-07
"Vn_Z:n" -1.635984848548414e-09
"Vn_Z:p" 1.635984848548414e-09
"time" 6.020065176400145e-09
"Vn_D1:v" 0.000000000000000e+00
"Vn_D1:i" -1.188162898462753e-06
"Vn_D1:pwr" -0.000000000000000e+00
"Vn_GND:v" 0.000000000000000e+00
"Vn_GND:i" 2.157621023754932e-07
"Vn_GND:pwr" 0.000000000000000e+00
"Vn_SD:v" 0.000000000000000e+00
"Vn_SD:i" 1.153986651751245e-08
"Vn_SD:pwr" 0.000000000000000e+00
"Vn_VDD:v" 1.200000000000000e+00
"Vn_VDD:i" 9.558952412365329e-07
"Vn_VDD:pwr" 1.147074289483839e-06
"Vn_Z:v" 0.000000000000000e+00
"Vn_Z:i" 4.965637205352424e-09
"Vn_Z:pwr" 0.000000000000000e+00
"n_Z" 1.199999524072100e+00
"n_D1" 6.264641603818140e-05
"n_SD" 1.200000000000000e+00
"Vn_D1:n" 1.188162898462753e-06
"Vn_D1:p" -1.188162898462753e-06
"Vn_GND:n" -2.157621023754932e-07
"Vn_GND:p" 2.157621023754932e-07
"Vn_SD:n" -1.153986651751245e-08
"Vn_SD:p" 1.153986651751245e-08
"Vn_VDD:n" -9.558952412365329e-07
"Vn_VDD:p" 9.558952412365329e-07
"Vn_Z:n" -4.965637205352424e-09
"Vn_Z:p" 4.965637205352424e-09
"time" 6.020130866000290e-09
"Vn_D1:v" 0.000000000000000e+00
"Vn_D1:i" -1.265528094468944e-06
"Vn_D1:pwr" -0.000000000000000e+00
"Vn_GND:v" 0.000000000000000e+00
"Vn_GND:i" 2.308819455378078e-07
"Vn_GND:pwr" 0.000000000000000e+00
"Vn_SD:v" 0.000000000000000e+00
"Vn_SD:i" 1.938651785169093e-08