HEADER
"PSFversion" "1.00"
"simulator" "spectre"
"version" "10.1.1.164.isr11"
"date" "3:01:57 PM, Fri Oct 17, 2014"
"design" "* Spectre Timing Acquisition"
"analysis type" "tran"
"analysis name" "transient1-011_transient1"
"analysis description" "Transient Analysis `transient1-011_transient1': time = (0 s -> 39 ns)"
"xVecSorted" "ascending"
"tolerance.relative" 0.00100000
"start" 0.00000
"outputstart" 0.00000
"stop" 3.90000e-08
"step" 3.90000e-11
"maxstep" 7.80000e-10
"ic" "all"
"useprevic" "no"
"skipdc" "no"
"reltol" 0.00100000
"abstol(V)" 1.00000e-06
"abstol(I)" 1.00000e-12
"temp" 25.0000
"tnom" 27.0000
"tempeffects" "all"
"errpreset" "moderate"
"method" "traponly"
"lteratio" 3.50000
"relref" "sigglobal"
"cmin" 0.00000
"gmin" 1.00000e-12
TYPE
"sweep" FLOAT DOUBLE PROP(
"key" "sweep"
)
"Tau" FLOAT DOUBLE PROP(
"units" "N*m"
"key" "node"
"tolerance" 1.00000e-06
)
"Alpha" FLOAT DOUBLE PROP(
"units" "rads/s^2"
"key" "node"
"tolerance" 1.00000e-06
)
"Omega" FLOAT DOUBLE PROP(
"units" "rads/s"
"key" "node"
"tolerance" 1.00000e-06
)
"Theta" FLOAT DOUBLE PROP(
"units" "rads"
"key" "node"
"tolerance" 1.00000e-06
)
"F" FLOAT DOUBLE PROP(
"units" "N"
"key" "node"
"tolerance" 1.00000e-06
)
"Imp" FLOAT DOUBLE PROP(
"units" "m/s^3"
"key" "node"
"tolerance" 1.00000e-06
)
"Acc" FLOAT DOUBLE PROP(
"units" "m/s^2"
"key" "node"
"tolerance" 1.00000e-06
)
"Vel" FLOAT DOUBLE PROP(
"units" "m/s"
"key" "node"
"tolerance" 1.00000e-06
)
"Pos" FLOAT DOUBLE PROP(
"units" "m"
"key" "node"
"tolerance" 1.00000e-06
)
"Phi" FLOAT DOUBLE PROP(
"units" "Wb"
"key" "node"
"tolerance" 1.00000e-09
)
"Q" FLOAT DOUBLE PROP(
"units" "coul"
"key" "node"
"tolerance" 1.00000e-14
)
"V" FLOAT DOUBLE PROP(
"units" "V"
"key" "node"
"tolerance" 1.00000e-06
)
"I" FLOAT DOUBLE PROP(
"units" "A"
"key" "branch"
"tolerance" 1.00000e-12
)
"MMF" FLOAT DOUBLE PROP(
"units" "A*turn"
"key" "node"
"tolerance" 1.00000e-12
)
"Wb" FLOAT DOUBLE PROP(
"units" "Wb"
"key" "node"
"tolerance" 1.00000e-09
)
"Temp" FLOAT DOUBLE PROP(
"units" "C"
"key" "node"
"tolerance" 0.000100000
)
"Pwr" FLOAT DOUBLE PROP(
"units" "W"
"key" "node"
"tolerance" 1.00000e-09
)
"U" FLOAT DOUBLE PROP(
"units" ""
"key" "node"
"tolerance" 1.00000e-06
)
"V/Sec" FLOAT DOUBLE PROP(
"units" "V/s"
"key" "node"
"tolerance" 0.000100000
)
"I/Sec" FLOAT DOUBLE PROP(
"units" "A/s"
"key" "node"
"tolerance" 1.00000e-06
)
"1/Sec" FLOAT DOUBLE PROP(
"units" "1/s"
"key" "node"
"tolerance" 0.000100000
)
"HOD" FLOAT DOUBLE PROP(
"units" ""
"key" "node"
"tolerance" 0.0100000
)
"A" FLOAT DOUBLE PROP(
"key" "inst"
)
"W" FLOAT DOUBLE PROP(
"key" "inst"
)
SWEEP
"time" "sweep" PROP(
"sweep_direction" 0
"units" "s"
"plot" 0
"grid" 1
)
TRACE
"Vn_D1:v" "V" PROP(
"units" "V"
)
"Vn_D1:i" "A" PROP(
"units" "A"
)
"Vn_D1:pwr" "W" PROP(
"units" "W"
)
"Vn_GND:v" "V" PROP(
"units" "V"
)
"Vn_GND:i" "A" PROP(
"units" "A"
)
"Vn_GND:pwr" "W" PROP(
"units" "W"
)
"Vn_SD:v" "V" PROP(
"units" "V"
)
"Vn_SD:i" "A" PROP(
"units" "A"
)
"Vn_SD:pwr" "W" PROP(
"units" "W"
)
"Vn_VDD:v" "V" PROP(
"units" "V"
)
"Vn_VDD:i" "A" PROP(
"units" "A"
)
"Vn_VDD:pwr" "W" PROP(
"units" "W"
)
"Vn_Z:v" "V" PROP(
"units" "V"
)
"Vn_Z:i" "A" PROP(
"units" "A"
)
"Vn_Z:pwr" "W" PROP(
"units" "W"
)
"n_Z" "V"
"n_D1" "V"
"n_SD" "V"
"Vn_D1:n" "I"
"Vn_D1:p" "I"
"Vn_GND:n" "I"
"Vn_GND:p" "I"
"Vn_SD:n" "I"
"Vn_SD:p" "I"
"Vn_VDD:n" "I"
"Vn_VDD:p" "I"
"Vn_Z:n" "I"
"Vn_Z:p" "I"
VALUE
"time" 0.000000000000000e+00
"Vn_D1:v" 0.000000000000000e+00
"Vn_D1:i" 7.517119452868265e-14
"Vn_D1:pwr" 0.000000000000000e+00
"Vn_GND:v" 0.000000000000000e+00
"Vn_GND:i" 2.548493107915354e-10
"Vn_GND:pwr" 0.000000000000000e+00
"Vn_SD:v" 0.000000000000000e+00
"Vn_SD:i" -5.105704018311278e-13
"Vn_SD:pwr" -0.000000000000000e+00
"Vn_VDD:v" 1.200000000000000e+00
"Vn_VDD:i" -2.544688430804970e-10
"Vn_VDD:pwr" -3.053626116965964e-10
"Vn_Z:v" 0.000000000000000e+00
"Vn_Z:i" 0.000000000000000e+00
"Vn_Z:pwr" 0.000000000000000e+00
"n_Z" 1.199999494927445e+00
"n_D1" 0.000000000000000e+00
"n_SD" 1.200000000000000e+00
"Vn_D1:n" -7.517119452868265e-14
"Vn_D1:p" 7.517119452868265e-14
"Vn_GND:n" -2.548493107915354e-10
"Vn_GND:p" 2.548493107915354e-10
"Vn_SD:n" 5.105704018311278e-13
"Vn_SD:p" -5.105704018311278e-13
"Vn_VDD:n" 2.544688430804970e-10
"Vn_VDD:p" -2.544688430804970e-10
"Vn_Z:n" 0.000000000000000e+00
"Vn_Z:p" 0.000000000000000e+00
"time" 3.900000000000000e-11
"Vn_D1:v" 0.000000000000000e+00
"Vn_D1:i" 7.485702048443953e-14
"Vn_D1:pwr" 0.000000000000000e+00
"Vn_GND:v" 0.000000000000000e+00
"Vn_GND:i" 2.548643158389405e-10
"Vn_GND:pwr" 0.000000000000000e+00
"Vn_SD:v" 0.000000000000000e+00
"Vn_SD:i" -5.109670658549465e-13
"Vn_SD:pwr" -0.000000000000000e+00
"Vn_VDD:v" 1.200000000000000e+00
"Vn_VDD:i" -2.544785794936278e-10
"Vn_VDD:pwr" -3.053742953923533e-10
"Vn_Z:v" 0.000000000000000e+00
"Vn_Z:i" -4.557795603033090e-15
"Vn_Z:pwr" -0.000000000000000e+00
"n_Z" 1.199999494889625e+00
"n_D1" 0.000000000000000e+00
"n_SD" 1.200000000000000e+00
"Vn_D1:n" -7.485702048443953e-14
"Vn_D1:p" 7.485702048443953e-14
"Vn_GND:n" -2.548643158389405e-10
"Vn_GND:p" 2.548643158389405e-10
"Vn_SD:n" 5.109670658549465e-13
"Vn_SD:p" -5.109670658549465e-13
"Vn_VDD:n" 2.544785794936278e-10
"Vn_VDD:p" -2.544785794936278e-10
"Vn_Z:n" 4.557795603033090e-15
"Vn_Z:p" -4.557795603033090e-15
"time" 1.170000000000000e-10
"Vn_D1:v" 0.000000000000000e+00
"Vn_D1:i" 7.504789684261806e-14
"Vn_D1:pwr" 0.000000000000000e+00
"Vn_GND:v" 0.000000000000000e+00
"Vn_GND:i" 2.548656934013201e-10
"Vn_GND:pwr" 0.000000000000000e+00
"Vn_SD:v" 0.000000000000000e+00
"Vn_SD:i" -5.107104188244988e-13
"Vn_SD:pwr" -0.000000000000000e+00
"Vn_VDD:v" 1.200000000000000e+00
"Vn_VDD:i" -2.544835061753778e-10
"Vn_VDD:pwr" -3.053802074104534e-10
"Vn_Z:v" 0.000000000000000e+00
"Vn_Z:i" -1.456206060246619e-15
"Vn_Z:pwr" -0.000000000000000e+00
"n_Z" 1.199999494865458e+00
"n_D1" 0.000000000000000e+00
"n_SD" 1.200000000000000e+00
"Vn_D1:n" -7.504789684261806e-14
"Vn_D1:p" 7.504789684261806e-14
"Vn_GND:n" -2.548656934013201e-10
"Vn_GND:p" 2.548656934013201e-10
"Vn_SD:n" 5.107104188244988e-13
"Vn_SD:p" -5.107104188244988e-13
"Vn_VDD:n" 2.544835061753778e-10
"Vn_VDD:p" -2.544835061753778e-10
"Vn_Z:n" 1.456206060246619e-15
"Vn_Z:p" -1.456206060246619e-15
"time" 2.730000000000000e-10
"Vn_D1:v" 0.000000000000000e+00
"Vn_D1:i" 7.521318409978792e-14
"Vn_D1:pwr" 0.000000000000000e+00
"Vn_GND:v" 0.000000000000000e+00
"Vn_GND:i" 2.548665329031830e-10
"Vn_GND:pwr" 0.000000000000000e+00
"Vn_SD:v" 0.000000000000000e+00
"Vn_SD:i" -5.105222280963253e-13
"Vn_SD:pwr" -0.000000000000000e+00
"Vn_VDD:v" 1.200000000000000e+00
"Vn_VDD:i" -2.544866712117812e-10
"Vn_VDD:pwr" -3.053840054541374e-10
"Vn_Z:v" 0.000000000000000e+00
"Vn_Z:i" 5.155031952443134e-16
"Vn_Z:pwr" 0.000000000000000e+00
"n_Z" 1.199999494849846e+00
"n_D1" 0.000000000000000e+00
"n_SD" 1.200000000000000e+00
"Vn_D1:n" -7.521318409978792e-14
"Vn_D1:p" 7.521318409978792e-14
"Vn_GND:n" -2.548665329031830e-10
"Vn_GND:p" 2.548665329031830e-10
"Vn_SD:n" 5.105222280963253e-13
"Vn_SD:p" -5.105222280963253e-13
"Vn_VDD:n" 2.544866712117812e-10
"Vn_VDD:p" -2.544866712117812e-10
"Vn_Z:n" -5.155031952443134e-16
"Vn_Z:p" 5.155031952443134e-16
"time" 5.850000000000002e-10
"Vn_D1:v" 0.000000000000000e+00
"Vn_D1:i" 7.514646594369880e-14
"Vn_D1:pwr" 0.000000000000000e+00
"Vn_GND:v" 0.000000000000000e+00
"Vn_GND:i" 2.548661565101645e-10
"Vn_GND:pwr" 0.000000000000000e+00
"Vn_SD:v" 0.000000000000000e+00
"Vn_SD:i" -5.105991008570310e-13
"Vn_SD:pwr" -0.000000000000000e+00
"Vn_VDD:v" 1.200000000000000e+00
"Vn_VDD:i" -2.544853203931526e-10
"Vn_VDD:pwr" -3.053823844717832e-10
"Vn_Z:v" 0.000000000000000e+00
"Vn_Z:i" -3.153027373830570e-16
"Vn_Z:pwr" -0.000000000000000e+00
"n_Z" 1.199999494856491e+00
"n_D1" 0.000000000000000e+00
"n_SD" 1.200000000000000e+00
"Vn_D1:n" -7.514646594369880e-14
"Vn_D1:p" 7.514646594369880e-14
"Vn_GND:n" -2.548661565101645e-10
"Vn_GND:p" 2.548661565101645e-10
"Vn_SD:n" 5.105991008570310e-13
"Vn_SD:p" -5.105991008570310e-13
"Vn_VDD:n" 2.544853203931526e-10
"Vn_VDD:p" -2.544853203931526e-10
"Vn_Z:n" 3.153027373830570e-16
"Vn_Z:p" -3.153027373830570e-16
"time" 1.209000000000000e-09
"Vn_D1:v" 0.000000000000000e+00
"Vn_D1:i" 7.519024950262408e-14
"Vn_D1:pwr" 0.000000000000000e+00
"Vn_GND:v" 0.000000000000000e+00
"Vn_GND:i" 2.548663632840138e-10
"Vn_GND:pwr" 0.000000000000000e+00
"Vn_SD:v" 0.000000000000000e+00
"Vn_SD:i" -5.105480877893900e-13
"Vn_SD:pwr" -0.000000000000000e+00
"Vn_VDD:v" 1.200000000000000e+00
"Vn_VDD:i" -2.544861872195344e-10
"Vn_VDD:pwr" -3.053834246634413e-10
"Vn_Z:v" 0.000000000000000e+00
"Vn_Z:i" 2.504621206022678e-16
"Vn_Z:pwr" 0.000000000000000e+00
"n_Z" 1.199999494852186e+00
"n_D1" 0.000000000000000e+00
"n_SD" 1.200000000000000e+00
"Vn_D1:n" -7.519024950262408e-14
"Vn_D1:p" 7.519024950262408e-14
"Vn_GND:n" -2.548663632840138e-10
"Vn_GND:p" 2.548663632840138e-10
"Vn_SD:n" 5.105480877893900e-13
"Vn_SD:p" -5.105480877893900e-13
"Vn_VDD:n" 2.544861872195344e-10
"Vn_VDD:p" -2.544861872195344e-10
"Vn_Z:n" -2.504621206022678e-16
"Vn_Z:p" 2.504621206022678e-16
"time" 1.989000000000000e-09
"Vn_D1:v" 0.000000000000000e+00
"Vn_D1:i" 7.515604134644742e-14
"Vn_D1:pwr" 0.000000000000000e+00
"Vn_GND:v" 0.000000000000000e+00
"Vn_GND:i" 2.548661220969905e-10
"Vn_GND:pwr" 0.000000000000000e+00
"Vn_SD:v" 0.000000000000000e+00
"Vn_SD:i" -5.105883030696110e-13
"Vn_SD:pwr" -0.000000000000000e+00
"Vn_VDD:v" 1.200000000000000e+00
"Vn_VDD:i" -2.544854183564565e-10
"Vn_VDD:pwr" -3.053825020277478e-10
"Vn_Z:v" 0.000000000000000e+00
"Vn_Z:i" -2.048837090145072e-16
"Vn_Z:pwr" -0.000000000000000e+00
"n_Z" 1.199999494855968e+00
"n_D1" 0.000000000000000e+00
"n_SD" 1.200000000000000e+00
"Vn_D1:n" -7.515604134644742e-14
"Vn_D1:p" 7.515604134644742e-14
"Vn_GND:n" -2.548661220969905e-10
"Vn_GND:p" 2.548661220969905e-10
"Vn_SD:n" 5.105883030696110e-13
"Vn_SD:p" -5.105883030696110e-13
"Vn_VDD:n" 2.544854183564565e-10
"Vn_VDD:p" -2.544854183564565e-10
"Vn_Z:n" 2.048837090145072e-16
"Vn_Z:p" -2.048837090145072e-16
"time" 2.769000000000001e-09
"Vn_D1:v" 0.000000000000000e+00
"Vn_D1:i" 7.518340637175168e-14
"Vn_D1:pwr" 0.000000000000000e+00
"Vn_GND:v" 0.000000000000000e+00
"Vn_GND:i" 2.548662374242523e-10
"Vn_GND:pwr" 0.000000000000000e+00
"Vn_SD:v" 0.000000000000000e+00
"Vn_SD:i" -5.105558074226168e-13
"Vn_SD:pwr" -0.000000000000000e+00
"Vn_VDD:v" 1.200000000000000e+00
"Vn_VDD:i" -2.544859670568590e-10
"Vn_VDD:pwr" -3.053831604682308e-10
"Vn_Z:v" 0.000000000000000e+00
"Vn_Z:i" 1.715997272214665e-16
"Vn_Z:pwr" 0.000000000000000e+00
"n_Z" 1.199999494853206e+00
"n_D1" 0.000000000000000e+00
"n_SD" 1.200000000000000e+00
"Vn_D1:n" -7.518340637175168e-14
"Vn_D1:p" 7.518340637175168e-14
"Vn_GND:n" -2.548662374242523e-10
"Vn_GND:p" 2.548662374242523e-10
"Vn_SD:n" 5.105558074226168e-13
"Vn_SD:p" -5.105558074226168e-13
"Vn_VDD:n" 2.544859670568590e-10
"Vn_VDD:p" -2.544859670568590e-10
"Vn_Z:n" -1.715997272214665e-16
"Vn_Z:p" 1.715997272214665e-16
"time" 3.000000000000000e-09
"Vn_D1:v" 0.000000000000000e+00
"Vn_D1:i" 7.516619009273576e-14
"Vn_D1:pwr" 0.000000000000000e+00
"Vn_GND:v" 0.000000000000000e+00
"Vn_GND:i" 2.548661142066160e-10
"Vn_GND:pwr" 0.000000000000000e+00
"Vn_SD:v" 0.000000000000000e+00
"Vn_SD:i" -5.105769006611526e-13
"Vn_SD:pwr" -0.000000000000000e+00
"Vn_VDD:v" 1.200000000000000e+00
"Vn_VDD:i" -2.544855504140987e-10
"Vn_VDD:pwr" -3.053826604969184e-10
"Vn_Z:v" 0.000000000000000e+00
"Vn_Z:i" -8.698546374046863e-17
"Vn_Z:pwr" -0.000000000000000e+00
"n_Z" 1.199999494855286e+00
"n_D1" 0.000000000000000e+00
"n_SD" 1.200000000000000e+00
"Vn_D1:n" -7.516619009273576e-14
"Vn_D1:p" 7.516619009273576e-14
"Vn_GND:n" -2.548661142066160e-10
"Vn_GND:p" 2.548661142066160e-10
"Vn_SD:n" 5.105769006611526e-13
"Vn_SD:p" -5.105769006611526e-13
"Vn_VDD:n" 2.544855504140987e-10
"Vn_VDD:p" -2.544855504140987e-10
"Vn_Z:n" 8.698546374046863e-17
"Vn_Z:p" -8.698546374046863e-17
"time" 3.010000000000000e-09
"Vn_D1:v" 0.000000000000000e+00
"Vn_D1:i" 7.516589623792996e-14
"Vn_D1:pwr" 0.000000000000000e+00
"Vn_GND:v" 0.000000000000000e+00
"Vn_GND:i" 2.548661217219367e-10
"Vn_GND:pwr" 0.000000000000000e+00
"Vn_SD:v" 0.000000000000000e+00
"Vn_SD:i" -5.105762444531089e-13
"Vn_SD:pwr" -0.000000000000000e+00
"Vn_VDD:v" 1.200000000000000e+00
"Vn_VDD:i" -2.544855762840567e-10
"Vn_VDD:pwr" -3.053826915408680e-10
"Vn_Z:v" 0.000000000000000e+00
"Vn_Z:i" -6.664633334484600e-17
"Vn_Z:pwr" -0.000000000000000e+00
"n_Z" 1.199999494855144e+00
"n_D1" 0.000000000000000e+00
"n_SD" 1.200000000000000e+00
"Vn_D1:n" -7.516589623792996e-14
"Vn_D1:p" 7.516589623792996e-14
"Vn_GND:n" -2.548661217219367e-10
"Vn_GND:p" 2.548661217219367e-10
"Vn_SD:n" 5.105762444531089e-13
"Vn_SD:p" -5.105762444531089e-13
"Vn_VDD:n" 2.544855762840567e-10
"Vn_VDD:p" -2.544855762840567e-10
"Vn_Z:n" 6.664633334484600e-17
"Vn_Z:p" -6.664633334484600e-17
"time" 3.030000000000000e-09
"Vn_D1:v" 0.000000000000000e+00
"Vn_D1:i" 7.516750542412108e-14
"Vn_D1:pwr" 0.000000000000000e+00
"Vn_GND:v" 0.000000000000000e+00
"Vn_GND:i" 2.548661307721353e-10
"Vn_GND:pwr" 0.000000000000000e+00
"Vn_SD:v" 0.000000000000000e+00
"Vn_SD:i" -5.105744374276920e-13
"Vn_SD:pwr" -0.000000000000000e+00
"Vn_VDD:v" 1.200000000000000e+00
"Vn_VDD:i" -2.544856125549875e-10
"Vn_VDD:pwr" -3.053827350659850e-10
"Vn_Z:v" 0.000000000000000e+00
"Vn_Z:i" -4.278477196233312e-17
"Vn_Z:pwr" -0.000000000000000e+00
"n_Z" 1.199999494854962e+00
"n_D1" 0.000000000000000e+00
"n_SD" 1.200000000000000e+00
"Vn_D1:n" -7.516750542412108e-14
"Vn_D1:p" 7.516750542412108e-14
"Vn_GND:n" -2.548661307721353e-10
"Vn_GND:p" 2.548661307721353e-10
"Vn_SD:n" 5.105744374276920e-13
"Vn_SD:p" -5.105744374276920e-13
"Vn_VDD:n" 2.544856125549875e-10
"Vn_VDD:p" -2.544856125549875e-10
"Vn_Z:n" 4.278477196233312e-17
"Vn_Z:p" -4.278477196233312e-17
"time" 3.070000000000001e-09
"Vn_D1:v" 0.000000000000000e+00
"Vn_D1:i" 7.517013465049384e-14
"Vn_D1:pwr" 0.000000000000000e+00
"Vn_GND:v" 0.000000000000000e+00
"Vn_GND:i" 2.548661415913291e-10
"Vn_GND:pwr" 0.000000000000000e+00
"Vn_SD:v" 0.000000000000000e+00
"Vn_SD:i" -5.105716486484883e-13
"Vn_SD:pwr" -0.000000000000000e+00
"Vn_VDD:v" 1.200000000000000e+00
"Vn_VDD:i" -2.544856593948716e-10
"Vn_VDD:pwr" -3.053827912738459e-10
"Vn_Z:v" 0.000000000000000e+00
"Vn_Z:i" -1.207253532852998e-17
"Vn_Z:pwr" -0.000000000000000e+00
"n_Z" 1.199999494854729e+00
"n_D1" 0.000000000000000e+00
"n_SD" 1.200000000000000e+00
"Vn_D1:n" -7.517013465049384e-14
"Vn_D1:p" 7.517013465049384e-14
"Vn_GND:n" -2.548661415913291e-10
"Vn_GND:p" 2.548661415913291e-10
"Vn_SD:n" 5.105716486484883e-13
"Vn_SD:p" -5.105716486484883e-13
"Vn_VDD:n" 2.544856593948716e-10
"Vn_VDD:p" -2.544856593948716e-10
"Vn_Z:n" 1.207253532852998e-17
"Vn_Z:p" -1.207253532852998e-17
"time" 3.150000000000003e-09
"Vn_D1:v" 0.000000000000000e+00
"Vn_D1:i" 7.517121489380497e-14
"Vn_D1:pwr" 0.000000000000000e+00
"Vn_GND:v" 0.000000000000000e+00
"Vn_GND:i" 2.548661420964190e-10
"Vn_GND:pwr" 0.000000000000000e+00
"Vn_SD:v" 0.000000000000000e+00
"Vn_SD:i" -5.105703050574952e-13
"Vn_SD:pwr" -0.000000000000000e+00
"Vn_VDD:v" 1.200000000000000e+00
"Vn_VDD:i" -2.544856761001298e-10
"Vn_VDD:pwr" -3.053828113201557e-10
"Vn_Z:v" 0.000000000000000e+00
"Vn_Z:i" 1.139112334539656e-18
"Vn_Z:pwr" 0.000000000000000e+00
"n_Z" 1.199999494854636e+00
"n_D1" 0.000000000000000e+00
"n_SD" 1.200000000000000e+00
"Vn_D1:n" -7.517121489380497e-14
"Vn_D1:p" 7.517121489380497e-14
"Vn_GND:n" -2.548661420964190e-10
"Vn_GND:p" 2.548661420964190e-10
"Vn_SD:n" 5.105703050574952e-13
"Vn_SD:p" -5.105703050574952e-13
"Vn_VDD:n" 2.544856761001298e-10
"Vn_VDD:p" -2.544856761001298e-10
"Vn_Z:n" -1.139112334539656e-18
"Vn_Z:p" 1.139112334539656e-18
"time" 3.310000000000005e-09
"Vn_D1:v" 0.000000000000000e+00
"Vn_D1:i" 7.517140450154900e-14
"Vn_D1:pwr" 0.000000000000000e+00
"Vn_GND:v" 0.000000000000000e+00
"Vn_GND:i" 2.548661341161387e-10
"Vn_GND:pwr" 0.000000000000000e+00
"Vn_SD:v" 0.000000000000000e+00
"Vn_SD:i" -5.105702035858460e-13
"Vn_SD:pwr" -0.000000000000000e+00
"Vn_VDD:v" 1.200000000000000e+00
"Vn_VDD:i" -2.544856681056664e-10
"Vn_VDD:pwr" -3.053828017267997e-10
"Vn_Z:v" 0.000000000000000e+00
"Vn_Z:i" 1.987298407352721e-18
"Vn_Z:pwr" 0.000000000000000e+00
"n_Z" 1.199999494854689e+00
"n_D1" 0.000000000000000e+00
"n_SD" 1.200000000000000e+00
"Vn_D1:n" -7.517140450154900e-14
"Vn_D1:p" 7.517140450154900e-14
"Vn_GND:n" -2.548661341161387e-10
"Vn_GND:p" 2.548661341161387e-10
"Vn_SD:n" 5.105702035858460e-13
"Vn_SD:p" -5.105702035858460e-13
"Vn_VDD:n" 2.544856681056664e-10
"Vn_VDD:p" -2.544856681056664e-10
"Vn_Z:n" -1.987298407352721e-18
"Vn_Z:p" 1.987298407352721e-18
"time" 3.630000000000011e-09
"Vn_D1:v" 0.000000000000000e+00
"Vn_D1:i" 7.517119658902927e-14
"Vn_D1:pwr" 0.000000000000000e+00
"Vn_GND:v" 0.000000000000000e+00
"Vn_GND:i" 2.548661138297960e-10
"Vn_GND:pwr" 0.000000000000000e+00
"Vn_SD:v" 0.000000000000000e+00
"Vn_SD:i" -5.105703701921519e-13
"Vn_SD:pwr" -0.000000000000000e+00
"Vn_VDD:v" 1.200000000000000e+00
"Vn_VDD:i" -2.544856427343512e-10
"Vn_VDD:pwr" -3.053827712812215e-10
"Vn_Z:v" 0.000000000000000e+00
"Vn_Z:i" 1.713801397004218e-19
"Vn_Z:pwr" 0.000000000000000e+00
"n_Z" 1.199999494854762e+00
"n_D1" 0.000000000000000e+00
"n_SD" 1.200000000000000e+00
"Vn_D1:n" -7.517119658902927e-14
"Vn_D1:p" 7.517119658902927e-14
"Vn_GND:n" -2.548661138297960e-10
"Vn_GND:p" 2.548661138297960e-10
"Vn_SD:n" 5.105703701921519e-13
"Vn_SD:p" -5.105703701921519e-13
"Vn_VDD:n" 2.544856427343512e-10
"Vn_VDD:p" -2.544856427343512e-10
"Vn_Z:n" -1.713801397004218e-19
"Vn_Z:p" 1.713801397004218e-19
"time" 4.270000000000022e-09
"Vn_D1:v" 0.000000000000000e+00
"Vn_D1:i" 7.517128002399630e-14
"Vn_D1:pwr" 0.000000000000000e+00
"Vn_GND:v" 0.000000000000000e+00
"Vn_GND:i" 2.548660776456191e-10
"Vn_GND:pwr" 0.000000000000000e+00
"Vn_SD:v" 0.000000000000000e+00
"Vn_SD:i" -5.105703075565553e-13
"Vn_SD:pwr" -0.000000000000000e+00
"Vn_VDD:v" 1.200000000000000e+00
"Vn_VDD:i" -2.544856155439716e-10
"Vn_VDD:pwr" -3.053827386527660e-10
"Vn_Z:v" 0.000000000000000e+00
"Vn_Z:i" 2.226655273630653e-18
"Vn_Z:pwr" 0.000000000000000e+00
"n_Z" 1.199999494854926e+00
"n_D1" 0.000000000000000e+00
"n_SD" 1.200000000000000e+00
"Vn_D1:n" -7.517128002399630e-14
"Vn_D1:p" 7.517128002399630e-14
"Vn_GND:n" -2.548660776456191e-10
"Vn_GND:p" 2.548660776456191e-10
"Vn_SD:n" 5.105703075565553e-13
"Vn_SD:p" -5.105703075565553e-13
"Vn_VDD:n" 2.544856155439716e-10
"Vn_VDD:p" -2.544856155439716e-10
"Vn_Z:n" -2.226655273630653e-18
"Vn_Z:p" 2.226655273630653e-18
"time" 5.050000000000022e-09
"Vn_D1:v" 0.000000000000000e+00
"Vn_D1:i" 7.517142857225870e-14
"Vn_D1:pwr" 0.000000000000000e+00
"Vn_GND:v" 0.000000000000000e+00
"Vn_GND:i" 2.548660325482682e-10
"Vn_GND:pwr" 0.000000000000000e+00
"Vn_SD:v" 0.000000000000000e+00
"Vn_SD:i" -5.105701404111681e-13
"Vn_SD:pwr" -0.000000000000000e+00
"Vn_VDD:v" 1.200000000000000e+00
"Vn_VDD:i" -2.544855555050802e-10
"Vn_VDD:pwr" -3.053826666060962e-10
"Vn_Z:v" 0.000000000000000e+00
"Vn_Z:i" 2.095605813755114e-19
"Vn_Z:pwr" 0.000000000000000e+00
"n_Z" 1.199999494855128e+00
"n_D1" 0.000000000000000e+00
"n_SD" 1.200000000000000e+00
"Vn_D1:n" -7.517142857225870e-14
"Vn_D1:p" 7.517142857225870e-14
"Vn_GND:n" -2.548660325482682e-10
"Vn_GND:p" 2.548660325482682e-10
"Vn_SD:n" 5.105701404111681e-13
"Vn_SD:p" -5.105701404111681e-13
"Vn_VDD:n" 2.544855555050802e-10
"Vn_VDD:p" -2.544855555050802e-10
"Vn_Z:n" -2.095605813755114e-19
"Vn_Z:p" 2.095605813755114e-19
"time" 5.830000000000022e-09
"Vn_D1:v" 0.000000000000000e+00
"Vn_D1:i" 7.517120011463619e-14
"Vn_D1:pwr" 0.000000000000000e+00
"Vn_GND:v" 0.000000000000000e+00
"Vn_GND:i" 2.548659870120917e-10
"Vn_GND:pwr" 0.000000000000000e+00
"Vn_SD:v" 0.000000000000000e+00
"Vn_SD:i" -5.105703622917918e-13
"Vn_SD:pwr" -0.000000000000000e+00
"Vn_VDD:v" 1.200000000000000e+00
"Vn_VDD:i" -2.544855347831303e-10
"Vn_VDD:pwr" -3.053826417397563e-10
"Vn_Z:v" 0.000000000000000e+00
"Vn_Z:i" 1.895385391084366e-18
"Vn_Z:pwr" 0.000000000000000e+00
"n_Z" 1.199999494855303e+00
"n_D1" 0.000000000000000e+00
"n_SD" 1.200000000000000e+00
"Vn_D1:n" -7.517120011463619e-14
"Vn_D1:p" 7.517120011463619e-14
"Vn_GND:n" -2.548659870120917e-10
"Vn_GND:p" 2.548659870120917e-10
"Vn_SD:n" 5.105703622917918e-13
"Vn_SD:p" -5.105703622917918e-13
"Vn_VDD:n" 2.544855347831303e-10
"Vn_VDD:p" -2.544855347831303e-10
"Vn_Z:n" -1.895385391084366e-18
"Vn_Z:p" 1.895385391084366e-18
"time" 6.010000000000000e-09
"Vn_D1:v" 0.000000000000000e+00
"Vn_D1:i" 7.517157701148050e-14
"Vn_D1:pwr" 0.000000000000000e+00
"Vn_GND:v" 0.000000000000000e+00
"Vn_GND:i" 2.548659770797949e-10
"Vn_GND:pwr" 0.000000000000000e+00
"Vn_SD:v" 0.000000000000000e+00
"Vn_SD:i" -5.105699981866608e-13
"Vn_SD:pwr" -0.000000000000000e+00
"Vn_VDD:v" 1.200000000000000e+00
"Vn_VDD:i" -2.544854952486274e-10
"Vn_VDD:pwr" -3.053825942983528e-10
"Vn_Z:v" 0.000000000000000e+00
"Vn_Z:i" 1.613695216934640e-18
"Vn_Z:pwr" 0.000000000000000e+00
"n_Z" 1.199999494855370e+00
"n_D1" 0.000000000000000e+00
"n_SD" 1.200000000000000e+00
"Vn_D1:n" -7.517157701148050e-14
"Vn_D1:p" 7.517157701148050e-14
"Vn_GND:n" -2.548659770797949e-10
"Vn_GND:p" 2.548659770797949e-10
"Vn_SD:n" 5.105699981866608e-13
"Vn_SD:p" -5.105699981866608e-13
"Vn_VDD:n" 2.544854952486274e-10
"Vn_VDD:p" -2.544854952486274e-10
"Vn_Z:n" -1.613695216934640e-18
"Vn_Z:p" 1.613695216934640e-18
"time" 6.019999743400000e-09
"Vn_D1:v" 0.000000000000000e+00
"Vn_D1:i" 7.517099820413759e-14
"Vn_D1:pwr" 0.000000000000000e+00
"Vn_GND:v" 0.000000000000000e+00
"Vn_GND:i" 2.548659754490544e-10
"Vn_GND:pwr" 0.000000000000000e+00
"Vn_SD:v" 0.000000000000000e+00
"Vn_SD:i" -5.105705878924254e-13
"Vn_SD:pwr" -0.000000000000000e+00
"Vn_VDD:v" 1.200000000000000e+00
"Vn_VDD:i" -2.544855077279738e-10
"Vn_VDD:pwr" -3.053826092735685e-10
"Vn_Z:v" 0.000000000000000e+00
"Vn_Z:i" 3.927491188528716e-19
"Vn_Z:pwr" 0.000000000000000e+00
"n_Z" 1.199999494855371e+00
"n_D1" 0.000000000000000e+00
"n_SD" 1.200000000000000e+00
"Vn_D1:n" -7.517099820413759e-14
"Vn_D1:p" 7.517099820413759e-14
"Vn_GND:n" -2.548659754490544e-10
"Vn_GND:p" 2.548659754490544e-10
"Vn_SD:n" 5.105705878924254e-13
"Vn_SD:p" -5.105705878924254e-13
"Vn_VDD:n" 2.544855077279738e-10
"Vn_VDD:p" -2.544855077279738e-10
"Vn_Z:n" -3.927491188528716e-19
"Vn_Z:p" 3.927491188528716e-19
"time" 6.020000000000000e-09
"Vn_D1:v" 0.000000000000000e+00
"Vn_D1:i" -1.075155978014755e-06
"Vn_D1:pwr" -0.000000000000000e+00
"Vn_GND:v" 0.000000000000000e+00
"Vn_GND:i" 1.931705647811257e-07
"Vn_GND:pwr" 0.000000000000000e+00
"Vn_SD:v" 0.000000000000000e+00
"Vn_SD:i" 5.439288240990806e-11
"Vn_SD:pwr" 0.000000000000000e+00
"Vn_VDD:v" 1.200000000000000e+00
"Vn_VDD:i" 8.819306858864828e-07
"Vn_VDD:pwr" 1.058316823063779e-06
"Vn_Z:v" 0.000000000000000e+00
"Vn_Z:i" 2.811326403733685e-13
"Vn_Z:pwr" 0.000000000000000e+00
"n_Z" 1.199999494855386e+00
"n_D1" 2.456722197575741e-07
"n_SD" 1.200000000000000e+00
"Vn_D1:n" 1.075155978014755e-06
"Vn_D1:p" -1.075155978014755e-06
"Vn_GND:n" -1.931705647811257e-07
"Vn_GND:p" 1.931705647811257e-07
"Vn_SD:n" -5.439288240990806e-11
"Vn_SD:p" 5.439288240990806e-11
"Vn_VDD:n" -8.819306858864828e-07
"Vn_VDD:p" 8.819306858864828e-07
"Vn_Z:n" -2.811326403733685e-13
"Vn_Z:p" 2.811326403733685e-13
"time" 6.020000513200001e-09
"Vn_D1:v" 0.000000000000000e+00
"Vn_D1:i" -1.076410568363003e-06
"Vn_D1:pwr" -0.000000000000000e+00
"Vn_GND:v" 0.000000000000000e+00
"Vn_GND:i" 1.933874221875954e-07
"Vn_GND:pwr" 0.000000000000000e+00
"Vn_SD:v" 0.000000000000000e+00
"Vn_SD:i" 1.638506456018377e-10
"Vn_SD:pwr" 0.000000000000000e+00
"Vn_VDD:v" 1.200000000000000e+00
"Vn_VDD:i" 8.828572899502338e-07
"Vn_VDD:pwr" 1.059428747940280e-06
"Vn_Z:v" 0.000000000000000e+00
"Vn_Z:i" 1.950366493979925e-12
"Vn_Z:pwr" 0.000000000000000e+00
"n_Z" 1.199999494855599e+00
"n_D1" 7.370166592727224e-07
"n_SD" 1.200000000000000e+00
"Vn_D1:n" 1.076410568363003e-06
"Vn_D1:p" -1.076410568363003e-06
"Vn_GND:n" -1.933874221875954e-07
"Vn_GND:p" 1.933874221875954e-07
"Vn_SD:n" -1.638506456018377e-10
"Vn_SD:p" 1.638506456018377e-10
"Vn_VDD:n" -8.828572899502338e-07
"Vn_VDD:p" 8.828572899502338e-07
"Vn_Z:n" -1.950366493979925e-12
"Vn_Z:p" 1.950366493979925e-12
"time" 6.020001539600004e-09
"Vn_D1:v" 0.000000000000000e+00
"Vn_D1:i" -1.078910639133609e-06
"Vn_D1:pwr" -0.000000000000000e+00
"Vn_GND:v" 0.000000000000000e+00
"Vn_GND:i" 1.938196728553433e-07
"Vn_GND:pwr" 0.000000000000000e+00
"Vn_SD:v" 0.000000000000000e+00
"Vn_SD:i" 3.820704330180012e-10
"Vn_SD:pwr" 0.000000000000000e+00
"Vn_VDD:v" 1.200000000000000e+00
"Vn_VDD:i" 8.847013748413107e-07
"Vn_VDD:pwr" 1.061641649809573e-06
"Vn_Z:v" 0.000000000000000e+00
"Vn_Z:i" 7.468114952897187e-12
"Vn_Z:pwr" 0.000000000000000e+00
"n_Z" 1.199999494856627e+00
"n_D1" 1.719705538303019e-06
"n_SD" 1.200000000000000e+00
"Vn_D1:n" 1.078910639133609e-06
"Vn_D1:p" -1.078910639133609e-06
"Vn_GND:n" -1.938196728553433e-07
"Vn_GND:p" 1.938196728553433e-07
"Vn_SD:n" -3.820704330180012e-10
"Vn_SD:p" 3.820704330180012e-10
"Vn_VDD:n" -8.847013748413107e-07
"Vn_VDD:p" 8.847013748413107e-07
"Vn_Z:n" -7.468114952897187e-12
"Vn_Z:p" 7.468114952897187e-12
"time" 6.020003592400008e-09
"Vn_D1:v" 0.000000000000000e+00
"Vn_D1:i" -1.083856409344130e-06
"Vn_D1:pwr" -0.000000000000000e+00
"Vn_GND:v" 0.000000000000000e+00
"Vn_GND:i" 1.946754670669533e-07
"Vn_GND:pwr" 0.000000000000000e+00
"Vn_SD:v" 0.000000000000000e+00
"Vn_SD:i" 8.143647650191259e-10
"Vn_SD:pwr" 0.000000000000000e+00
"Vn_VDD:v" 1.200000000000000e+00
"Vn_VDD:i" 8.883353458262577e-07
"Vn_VDD:pwr" 1.066002414991509e-06
"Vn_Z:v" 0.000000000000000e+00
"Vn_Z:i" 3.117498396775658e-11
"Vn_Z:pwr" 0.000000000000000e+00
"n_Z" 1.199999494865066e+00
"n_D1" 3.685083296363612e-06
"n_SD" 1.200000000000000e+00
"Vn_D1:n" 1.083856409344130e-06
"Vn_D1:p" -1.083856409344130e-06
"Vn_GND:n" -1.946754670669533e-07
"Vn_GND:p" 1.946754670669533e-07
"Vn_SD:n" -8.143647650191259e-10
"Vn_SD:p" 8.143647650191259e-10
"Vn_VDD:n" -8.883353458262577e-07
"Vn_VDD:p" 8.883353458262577e-07
"Vn_Z:n" -3.117498396775658e-11
"Vn_Z:p" 3.117498396775658e-11
"time" 6.020007698000017e-09
"Vn_D1:v" 0.000000000000000e+00
"Vn_D1:i" -1.093535525486422e-06
"Vn_D1:pwr" -0.000000000000000e+00
"Vn_GND:v" 0.000000000000000e+00
"Vn_GND:i" 1.963526681898930e-07
"Vn_GND:pwr" 0.000000000000000e+00
"Vn_SD:v" 0.000000000000000e+00
"Vn_SD:i" 1.662573461851969e-09
"Vn_SD:pwr" 0.000000000000000e+00
"Vn_VDD:v" 1.200000000000000e+00
"Vn_VDD:i" 8.953947886802700e-07
"Vn_VDD:pwr" 1.074473746416324e-06
"Vn_Z:v" 0.000000000000000e+00
"Vn_Z:i" 1.254422683514057e-10
"Vn_Z:pwr" 0.000000000000000e+00
"n_Z" 1.199999494933472e+00
"n_D1" 7.615838812484797e-06
"n_SD" 1.200000000000000e+00
"Vn_D1:n" 1.093535525486422e-06
"Vn_D1:p" -1.093535525486422e-06
"Vn_GND:n" -1.963526681898930e-07
"Vn_GND:p" 1.963526681898930e-07
"Vn_SD:n" -1.662573461851969e-09
"Vn_SD:p" 1.662573461851969e-09
"Vn_VDD:n" -8.953947886802700e-07
"Vn_VDD:p" 8.953947886802700e-07
"Vn_Z:n" -1.254422683514057e-10
"Vn_Z:p" 1.254422683514057e-10
"time" 6.020015909200036e-09
"Vn_D1:v" 0.000000000000000e+00
"Vn_D1:i" -1.112079781757072e-06
"Vn_D1:pwr" -0.000000000000000e+00
"Vn_GND:v" 0.000000000000000e+00
"Vn_GND:i" 1.995734477126256e-07
"Vn_GND:pwr" 0.000000000000000e+00
"Vn_SD:v" 0.000000000000000e+00
"Vn_SD:i" 3.295159727889259e-09
"Vn_SD:pwr" 0.000000000000000e+00
"Vn_VDD:v" 1.200000000000000e+00
"Vn_VDD:i" 9.087369227446565e-07
"Vn_VDD:pwr" 1.090484307293588e-06
"Vn_Z:v" 0.000000000000000e+00
"Vn_Z:i" 4.741944304534007e-10
"Vn_Z:pwr" 0.000000000000000e+00
"n_Z" 1.199999495457273e+00
"n_D1" 1.547734984472717e-05
"n_SD" 1.200000000000000e+00
"Vn_D1:n" 1.112079781757072e-06
"Vn_D1:p" -1.112079781757072e-06
"Vn_GND:n" -1.995734477126256e-07
"Vn_GND:p" 1.995734477126256e-07
"Vn_SD:n" -3.295159727889259e-09
"Vn_SD:p" 3.295159727889259e-09
"Vn_VDD:n" -9.087369227446565e-07
"Vn_VDD:p" 9.087369227446565e-07
"Vn_Z:n" -4.741944304534007e-10
"Vn_Z:p" 4.741944304534007e-10
"time" 6.020032331600072e-09
"Vn_D1:v" 0.000000000000000e+00
"Vn_D1:i" -1.137002772216902e-06
"Vn_D1:pwr" -0.000000000000000e+00
"Vn_GND:v" 0.000000000000000e+00
"Vn_GND:i" 2.055324713413922e-07
"Vn_GND:pwr" 0.000000000000000e+00
"Vn_SD:v" 0.000000000000000e+00
"Vn_SD:i" 6.320736754318054e-09
"Vn_SD:pwr" 0.000000000000000e+00
"Vn_VDD:v" 1.200000000000000e+00
"Vn_VDD:i" 9.235050819910550e-07
"Vn_VDD:pwr" 1.108206098389266e-06
"Vn_Z:v" 0.000000000000000e+00
"Vn_Z:i" 1.644429490242588e-09
"Vn_Z:pwr" 0.000000000000000e+00
"n_Z" 1.199999499158645e+00
"n_D1" 3.120037190921192e-05
"n_SD" 1.200000000000000e+00
"Vn_D1:n" 1.137002772216902e-06
"Vn_D1:p" -1.137002772216902e-06
"Vn_GND:n" -2.055324713413922e-07
"Vn_GND:p" 2.055324713413922e-07
"Vn_SD:n" -6.320736754318054e-09
"Vn_SD:p" 6.320736754318054e-09
"Vn_VDD:n" -9.235050819910550e-07
"Vn_VDD:p" 9.235050819910550e-07
"Vn_Z:n" -1.644429490242588e-09
"Vn_Z:p" 1.644429490242588e-09
"time" 6.020065176400145e-09
"Vn_D1:v" 0.000000000000000e+00
"Vn_D1:i" -1.188162917490898e-06
"Vn_D1:pwr" -0.000000000000000e+00
"Vn_GND:v" 0.000000000000000e+00
"Vn_GND:i" 2.157481094467070e-07
"Vn_GND:pwr" 0.000000000000000e+00
"Vn_SD:v" 0.000000000000000e+00
"Vn_SD:i" 1.153402886678347e-08
"Vn_SD:pwr" 0.000000000000000e+00
"Vn_VDD:v" 1.200000000000000e+00
"Vn_VDD:i" 9.558684550803896e-07
"Vn_VDD:pwr" 1.147042146096468e-06
"Vn_Z:v" 0.000000000000000e+00
"Vn_Z:i" 5.012266881957712e-09
"Vn_Z:pwr" 0.000000000000000e+00
"n_Z" 1.199999522417992e+00
"n_D1" 6.264641603818140e-05
"n_SD" 1.200000000000000e+00
"Vn_D1:n" 1.188162917490898e-06
"Vn_D1:p" -1.188162917490898e-06
"Vn_GND:n" -2.157481094467070e-07
"Vn_GND:p" 2.157481094467070e-07
"Vn_SD:n" -1.153402886678347e-08
"Vn_SD:p" 1.153402886678347e-08
"Vn_VDD:n" -9.558684550803896e-07
"Vn_VDD:p" 9.558684550803896e-07
"Vn_Z:n" -5.012266881957712e-09
"Vn_Z:p" 5.012266881957712e-09
"time" 6.020130866000290e-09
"Vn_D1:v" 0.000000000000000e+00
"Vn_D1:i" -1.265528193522641e-06
"Vn_D1:pwr" -0.000000000000000e+00
"Vn_GND:v" 0.000000000000000e+00
"Vn_GND:i" 2.308268428435075e-07
"Vn_GND:pwr" 0.000000000000000e+00
"Vn_SD:v" 0.000000000000000e+00
"Vn_SD:i" 1.936135387432013e-08
"Vn_SD:pwr" 0.000000000000000e+00