HEADER
"PSFversion" "1.00"
"simulator" "spectre"
"version" "10.1.1.164.isr11"
"date" "3:01:57 PM, Fri Oct 17, 2014"
"design" "* Spectre Timing Acquisition"
"analysis type" "tran"
"analysis name" "transient1-015_transient1"
"analysis description" "Transient Analysis `transient1-015_transient1': time = (0 s -> 39 ns)"
"xVecSorted" "ascending"
"tolerance.relative" 0.00100000
"start" 0.00000
"outputstart" 0.00000
"stop" 3.90000e-08
"step" 3.90000e-11
"maxstep" 7.80000e-10
"ic" "all"
"useprevic" "no"
"skipdc" "no"
"reltol" 0.00100000
"abstol(V)" 1.00000e-06
"abstol(I)" 1.00000e-12
"temp" 25.0000
"tnom" 27.0000
"tempeffects" "all"
"errpreset" "moderate"
"method" "traponly"
"lteratio" 3.50000
"relref" "sigglobal"
"cmin" 0.00000
"gmin" 1.00000e-12
TYPE
"sweep" FLOAT DOUBLE PROP(
"key" "sweep"
)
"Tau" FLOAT DOUBLE PROP(
"units" "N*m"
"key" "node"
"tolerance" 1.00000e-06
)
"Alpha" FLOAT DOUBLE PROP(
"units" "rads/s^2"
"key" "node"
"tolerance" 1.00000e-06
)
"Omega" FLOAT DOUBLE PROP(
"units" "rads/s"
"key" "node"
"tolerance" 1.00000e-06
)
"Theta" FLOAT DOUBLE PROP(
"units" "rads"
"key" "node"
"tolerance" 1.00000e-06
)
"F" FLOAT DOUBLE PROP(
"units" "N"
"key" "node"
"tolerance" 1.00000e-06
)
"Imp" FLOAT DOUBLE PROP(
"units" "m/s^3"
"key" "node"
"tolerance" 1.00000e-06
)
"Acc" FLOAT DOUBLE PROP(
"units" "m/s^2"
"key" "node"
"tolerance" 1.00000e-06
)
"Vel" FLOAT DOUBLE PROP(
"units" "m/s"
"key" "node"
"tolerance" 1.00000e-06
)
"Pos" FLOAT DOUBLE PROP(
"units" "m"
"key" "node"
"tolerance" 1.00000e-06
)
"Phi" FLOAT DOUBLE PROP(
"units" "Wb"
"key" "node"
"tolerance" 1.00000e-09
)
"Q" FLOAT DOUBLE PROP(
"units" "coul"
"key" "node"
"tolerance" 1.00000e-14
)
"V" FLOAT DOUBLE PROP(
"units" "V"
"key" "node"
"tolerance" 1.00000e-06
)
"I" FLOAT DOUBLE PROP(
"units" "A"
"key" "branch"
"tolerance" 1.00000e-12
)
"MMF" FLOAT DOUBLE PROP(
"units" "A*turn"
"key" "node"
"tolerance" 1.00000e-12
)
"Wb" FLOAT DOUBLE PROP(
"units" "Wb"
"key" "node"
"tolerance" 1.00000e-09
)
"Temp" FLOAT DOUBLE PROP(
"units" "C"
"key" "node"
"tolerance" 0.000100000
)
"Pwr" FLOAT DOUBLE PROP(
"units" "W"
"key" "node"
"tolerance" 1.00000e-09
)
"U" FLOAT DOUBLE PROP(
"units" ""
"key" "node"
"tolerance" 1.00000e-06
)
"V/Sec" FLOAT DOUBLE PROP(
"units" "V/s"
"key" "node"
"tolerance" 0.000100000
)
"I/Sec" FLOAT DOUBLE PROP(
"units" "A/s"
"key" "node"
"tolerance" 1.00000e-06
)
"1/Sec" FLOAT DOUBLE PROP(
"units" "1/s"
"key" "node"
"tolerance" 0.000100000
)
"HOD" FLOAT DOUBLE PROP(
"units" ""
"key" "node"
"tolerance" 0.0100000
)
"A" FLOAT DOUBLE PROP(
"key" "inst"
)
"W" FLOAT DOUBLE PROP(
"key" "inst"
)
SWEEP
"time" "sweep" PROP(
"sweep_direction" 0
"units" "s"
"plot" 0
"grid" 1
)
TRACE
"Vn_D1:v" "V" PROP(
"units" "V"
)
"Vn_D1:i" "A" PROP(
"units" "A"
)
"Vn_D1:pwr" "W" PROP(
"units" "W"
)
"Vn_GND:v" "V" PROP(
"units" "V"
)
"Vn_GND:i" "A" PROP(
"units" "A"
)
"Vn_GND:pwr" "W" PROP(
"units" "W"
)
"Vn_SD:v" "V" PROP(
"units" "V"
)
"Vn_SD:i" "A" PROP(
"units" "A"
)
"Vn_SD:pwr" "W" PROP(
"units" "W"
)
"Vn_VDD:v" "V" PROP(
"units" "V"
)
"Vn_VDD:i" "A" PROP(
"units" "A"
)
"Vn_VDD:pwr" "W" PROP(
"units" "W"
)
"Vn_Z:v" "V" PROP(
"units" "V"
)
"Vn_Z:i" "A" PROP(
"units" "A"
)
"Vn_Z:pwr" "W" PROP(
"units" "W"
)
"n_Z" "V"
"n_D1" "V"
"n_SD" "V"
"Vn_D1:n" "I"
"Vn_D1:p" "I"
"Vn_GND:n" "I"
"Vn_GND:p" "I"
"Vn_SD:n" "I"
"Vn_SD:p" "I"
"Vn_VDD:n" "I"
"Vn_VDD:p" "I"
"Vn_Z:n" "I"
"Vn_Z:p" "I"
VALUE
"time" 0.000000000000000e+00
"Vn_D1:v" 0.000000000000000e+00
"Vn_D1:i" 7.517119452868265e-14
"Vn_D1:pwr" 0.000000000000000e+00
"Vn_GND:v" 0.000000000000000e+00
"Vn_GND:i" 2.548493107915442e-10
"Vn_GND:pwr" 0.000000000000000e+00
"Vn_SD:v" 0.000000000000000e+00
"Vn_SD:i" -5.105704018311279e-13
"Vn_SD:pwr" -0.000000000000000e+00
"Vn_VDD:v" 1.200000000000000e+00
"Vn_VDD:i" -2.544688430805070e-10
"Vn_VDD:pwr" -3.053626116966085e-10
"Vn_Z:v" 0.000000000000000e+00
"Vn_Z:i" 0.000000000000000e+00
"Vn_Z:pwr" 0.000000000000000e+00
"n_Z" 1.199999494927445e+00
"n_D1" 0.000000000000000e+00
"n_SD" 1.200000000000000e+00
"Vn_D1:n" -7.517119452868265e-14
"Vn_D1:p" 7.517119452868265e-14
"Vn_GND:n" -2.548493107915442e-10
"Vn_GND:p" 2.548493107915442e-10
"Vn_SD:n" 5.105704018311279e-13
"Vn_SD:p" -5.105704018311279e-13
"Vn_VDD:n" 2.544688430805070e-10
"Vn_VDD:p" -2.544688430805070e-10
"Vn_Z:n" 0.000000000000000e+00
"Vn_Z:p" 0.000000000000000e+00
"time" 3.900000000000000e-11
"Vn_D1:v" 0.000000000000000e+00
"Vn_D1:i" 7.487395700010572e-14
"Vn_D1:pwr" 0.000000000000000e+00
"Vn_GND:v" 0.000000000000000e+00
"Vn_GND:i" 2.548644059677087e-10
"Vn_GND:pwr" 0.000000000000000e+00
"Vn_SD:v" 0.000000000000000e+00
"Vn_SD:i" -5.109415680781938e-13
"Vn_SD:pwr" -0.000000000000000e+00
"Vn_VDD:v" 1.200000000000000e+00
"Vn_VDD:i" -2.544778553890594e-10
"Vn_VDD:pwr" -3.053734264668712e-10
"Vn_Z:v" 0.000000000000000e+00
"Vn_Z:i" -5.414463232022300e-15
"Vn_Z:pwr" -0.000000000000000e+00
"n_Z" 1.199999494891654e+00
"n_D1" 0.000000000000000e+00
"n_SD" 1.200000000000000e+00
"Vn_D1:n" -7.487395700010572e-14
"Vn_D1:p" 7.487395700010572e-14
"Vn_GND:n" -2.548644059677087e-10
"Vn_GND:p" 2.548644059677087e-10
"Vn_SD:n" 5.109415680781938e-13
"Vn_SD:p" -5.109415680781938e-13
"Vn_VDD:n" 2.544778553890594e-10
"Vn_VDD:p" -2.544778553890594e-10
"Vn_Z:n" 5.414463232022300e-15
"Vn_Z:p" -5.414463232022300e-15
"time" 1.170000000000000e-10
"Vn_D1:v" 0.000000000000000e+00
"Vn_D1:i" 7.504670698414941e-14
"Vn_D1:pwr" 0.000000000000000e+00
"Vn_GND:v" 0.000000000000000e+00
"Vn_GND:i" 2.548656855725021e-10
"Vn_GND:pwr" 0.000000000000000e+00
"Vn_SD:v" 0.000000000000000e+00
"Vn_SD:i" -5.107136683438039e-13
"Vn_SD:pwr" -0.000000000000000e+00
"Vn_VDD:v" 1.200000000000000e+00
"Vn_VDD:i" -2.544830862310906e-10
"Vn_VDD:pwr" -3.053797034773087e-10
"Vn_Z:v" 0.000000000000000e+00
"Vn_Z:i" -1.863876399607908e-15
"Vn_Z:pwr" -0.000000000000000e+00
"n_Z" 1.199999494867013e+00
"n_D1" 0.000000000000000e+00
"n_SD" 1.200000000000000e+00
"Vn_D1:n" -7.504670698414941e-14
"Vn_D1:p" 7.504670698414941e-14
"Vn_GND:n" -2.548656855725021e-10
"Vn_GND:p" 2.548656855725021e-10
"Vn_SD:n" 5.107136683438039e-13
"Vn_SD:p" -5.107136683438039e-13
"Vn_VDD:n" 2.544830862310906e-10
"Vn_VDD:p" -2.544830862310906e-10
"Vn_Z:n" 1.863876399607908e-15
"Vn_Z:p" -1.863876399607908e-15
"time" 2.730000000000000e-10
"Vn_D1:v" 0.000000000000000e+00
"Vn_D1:i" 7.520773383242669e-14
"Vn_D1:pwr" 0.000000000000000e+00
"Vn_GND:v" 0.000000000000000e+00
"Vn_GND:i" 2.548665061934271e-10
"Vn_GND:pwr" 0.000000000000000e+00
"Vn_SD:v" 0.000000000000000e+00
"Vn_SD:i" -5.105281875564952e-13
"Vn_SD:pwr" -0.000000000000000e+00
"Vn_VDD:v" 1.200000000000000e+00
"Vn_VDD:i" -2.544866885060293e-10
"Vn_VDD:pwr" -3.053840262072351e-10
"Vn_Z:v" 0.000000000000000e+00
"Vn_Z:i" 5.704449986925291e-16
"Vn_Z:pwr" 0.000000000000000e+00
"n_Z" 1.199999494849914e+00
"n_D1" 0.000000000000000e+00
"n_SD" 1.200000000000000e+00
"Vn_D1:n" -7.520773383242669e-14
"Vn_D1:p" 7.520773383242669e-14
"Vn_GND:n" -2.548665061934271e-10
"Vn_GND:p" 2.548665061934271e-10
"Vn_SD:n" 5.105281875564952e-13
"Vn_SD:p" -5.105281875564952e-13
"Vn_VDD:n" 2.544866885060293e-10
"Vn_VDD:p" -2.544866885060293e-10
"Vn_Z:n" -5.704449986925291e-16
"Vn_Z:p" 5.704449986925291e-16
"time" 5.850000000000002e-10
"Vn_D1:v" 0.000000000000000e+00
"Vn_D1:i" 7.515113475312886e-14
"Vn_D1:pwr" 0.000000000000000e+00
"Vn_GND:v" 0.000000000000000e+00
"Vn_GND:i" 2.548661798989785e-10
"Vn_GND:pwr" 0.000000000000000e+00
"Vn_SD:v" 0.000000000000000e+00
"Vn_SD:i" -5.105936926199054e-13
"Vn_SD:pwr" -0.000000000000000e+00
"Vn_VDD:v" 1.200000000000000e+00
"Vn_VDD:i" -2.544853382773931e-10
"Vn_VDD:pwr" -3.053824059328717e-10
"Vn_Z:v" 0.000000000000000e+00
"Vn_Z:i" -3.284836725283815e-16
"Vn_Z:pwr" -0.000000000000000e+00
"n_Z" 1.199999494856311e+00
"n_D1" 0.000000000000000e+00
"n_SD" 1.200000000000000e+00
"Vn_D1:n" -7.515113475312886e-14
"Vn_D1:p" 7.515113475312886e-14
"Vn_GND:n" -2.548661798989785e-10
"Vn_GND:p" 2.548661798989785e-10
"Vn_SD:n" 5.105936926199054e-13
"Vn_SD:p" -5.105936926199054e-13
"Vn_VDD:n" 2.544853382773931e-10
"Vn_VDD:p" -2.544853382773931e-10
"Vn_Z:n" 3.284836725283815e-16
"Vn_Z:p" -3.284836725283815e-16
"time" 1.209000000000000e-09
"Vn_D1:v" 0.000000000000000e+00
"Vn_D1:i" 7.518622205413199e-14
"Vn_D1:pwr" 0.000000000000000e+00
"Vn_GND:v" 0.000000000000000e+00
"Vn_GND:i" 2.548663430815527e-10
"Vn_GND:pwr" 0.000000000000000e+00
"Vn_SD:v" 0.000000000000000e+00
"Vn_SD:i" -5.105528617445809e-13
"Vn_SD:pwr" -0.000000000000000e+00
"Vn_VDD:v" 1.200000000000000e+00
"Vn_VDD:i" -2.544861630470589e-10
"Vn_VDD:pwr" -3.053833956564707e-10
"Vn_Z:v" 0.000000000000000e+00
"Vn_Z:i" 2.541362675106521e-16
"Vn_Z:pwr" 0.000000000000000e+00
"n_Z" 1.199999494852380e+00
"n_D1" 0.000000000000000e+00
"n_SD" 1.200000000000000e+00
"Vn_D1:n" -7.518622205413199e-14
"Vn_D1:p" 7.518622205413199e-14
"Vn_GND:n" -2.548663430815527e-10
"Vn_GND:p" 2.548663430815527e-10
"Vn_SD:n" 5.105528617445809e-13
"Vn_SD:p" -5.105528617445809e-13
"Vn_VDD:n" 2.544861630470589e-10
"Vn_VDD:p" -2.544861630470589e-10
"Vn_Z:n" -2.541362675106521e-16
"Vn_Z:p" 2.541362675106521e-16
"time" 1.989000000000000e-09
"Vn_D1:v" 0.000000000000000e+00
"Vn_D1:i" 7.515972033133388e-14
"Vn_D1:pwr" 0.000000000000000e+00
"Vn_GND:v" 0.000000000000000e+00
"Vn_GND:i" 2.548661407420959e-10
"Vn_GND:pwr" 0.000000000000000e+00
"Vn_SD:v" 0.000000000000000e+00
"Vn_SD:i" -5.105838648015213e-13
"Vn_SD:pwr" -0.000000000000000e+00
"Vn_VDD:v" 1.200000000000000e+00
"Vn_VDD:i" -2.544854419340470e-10
"Vn_VDD:pwr" -3.053825303208564e-10
"Vn_Z:v" 0.000000000000000e+00
"Vn_Z:i" -2.027657647667535e-16
"Vn_Z:pwr" -0.000000000000000e+00
"n_Z" 1.199999494855775e+00
"n_D1" 0.000000000000000e+00
"n_SD" 1.200000000000000e+00
"Vn_D1:n" -7.515972033133388e-14
"Vn_D1:p" 7.515972033133388e-14
"Vn_GND:n" -2.548661407420959e-10
"Vn_GND:p" 2.548661407420959e-10
"Vn_SD:n" 5.105838648015213e-13
"Vn_SD:p" -5.105838648015213e-13
"Vn_VDD:n" 2.544854419340470e-10
"Vn_VDD:p" -2.544854419340470e-10
"Vn_Z:n" 2.027657647667535e-16
"Vn_Z:p" -2.027657647667535e-16
"time" 2.769000000000001e-09
"Vn_D1:v" 0.000000000000000e+00
"Vn_D1:i" 7.518032313913829e-14
"Vn_D1:pwr" 0.000000000000000e+00
"Vn_GND:v" 0.000000000000000e+00
"Vn_GND:i" 2.548662219309958e-10
"Vn_GND:pwr" 0.000000000000000e+00
"Vn_SD:v" 0.000000000000000e+00
"Vn_SD:i" -5.105596159350159e-13
"Vn_SD:pwr" -0.000000000000000e+00
"Vn_VDD:v" 1.200000000000000e+00
"Vn_VDD:i" -2.544859471015957e-10
"Vn_VDD:pwr" -3.053831365219148e-10
"Vn_Z:v" 0.000000000000000e+00
"Vn_Z:i" 1.666535851430866e-16
"Vn_Z:pwr" 0.000000000000000e+00
"n_Z" 1.199999494853389e+00
"n_D1" 0.000000000000000e+00
"n_SD" 1.200000000000000e+00
"Vn_D1:n" -7.518032313913829e-14
"Vn_D1:p" 7.518032313913829e-14
"Vn_GND:n" -2.548662219309958e-10
"Vn_GND:p" 2.548662219309958e-10
"Vn_SD:n" 5.105596159350159e-13
"Vn_SD:p" -5.105596159350159e-13
"Vn_VDD:n" 2.544859471015957e-10
"Vn_VDD:p" -2.544859471015957e-10
"Vn_Z:n" -1.666535851430866e-16
"Vn_Z:p" 1.666535851430866e-16
"time" 3.000000000000000e-09
"Vn_D1:v" 0.000000000000000e+00
"Vn_D1:i" 7.516800477663467e-14
"Vn_D1:pwr" 0.000000000000000e+00
"Vn_GND:v" 0.000000000000000e+00
"Vn_GND:i" 2.548661234111096e-10
"Vn_GND:pwr" 0.000000000000000e+00
"Vn_SD:v" 0.000000000000000e+00
"Vn_SD:i" -5.105743748004267e-13
"Vn_SD:pwr" -0.000000000000000e+00
"Vn_VDD:v" 1.200000000000000e+00
"Vn_VDD:i" -2.544855670251352e-10
"Vn_VDD:pwr" -3.053826804301623e-10
"Vn_Z:v" 0.000000000000000e+00
"Vn_Z:i" -7.655625099265986e-17
"Vn_Z:pwr" -0.000000000000000e+00
"n_Z" 1.199999494855152e+00
"n_D1" 0.000000000000000e+00
"n_SD" 1.200000000000000e+00
"Vn_D1:n" -7.516800477663467e-14
"Vn_D1:p" 7.516800477663467e-14
"Vn_GND:n" -2.548661234111096e-10
"Vn_GND:p" 2.548661234111096e-10
"Vn_SD:n" 5.105743748004267e-13
"Vn_SD:p" -5.105743748004267e-13
"Vn_VDD:n" 2.544855670251352e-10
"Vn_VDD:p" -2.544855670251352e-10
"Vn_Z:n" 7.655625099265986e-17
"Vn_Z:p" -7.655625099265986e-17
"time" 3.010000000000000e-09
"Vn_D1:v" 0.000000000000000e+00
"Vn_D1:i" 7.516744123093843e-14
"Vn_D1:pwr" 0.000000000000000e+00
"Vn_GND:v" 0.000000000000000e+00
"Vn_GND:i" 2.548661291655873e-10
"Vn_GND:pwr" 0.000000000000000e+00
"Vn_SD:v" 0.000000000000000e+00
"Vn_SD:i" -5.105746166616417e-13
"Vn_SD:pwr" -0.000000000000000e+00
"Vn_VDD:v" 1.200000000000000e+00
"Vn_VDD:i" -2.544855919418568e-10
"Vn_VDD:pwr" -3.053827103302281e-10
"Vn_Z:v" 0.000000000000000e+00
"Vn_Z:i" -6.156306673767872e-17
"Vn_Z:pwr" -0.000000000000000e+00
"n_Z" 1.199999494855048e+00
"n_D1" 0.000000000000000e+00
"n_SD" 1.200000000000000e+00
"Vn_D1:n" -7.516744123093843e-14
"Vn_D1:p" 7.516744123093843e-14
"Vn_GND:n" -2.548661291655873e-10
"Vn_GND:p" 2.548661291655873e-10
"Vn_SD:n" 5.105746166616417e-13
"Vn_SD:p" -5.105746166616417e-13
"Vn_VDD:n" 2.544855919418568e-10
"Vn_VDD:p" -2.544855919418568e-10
"Vn_Z:n" 6.156306673767872e-17
"Vn_Z:p" -6.156306673767872e-17
"time" 3.030000000000000e-09
"Vn_D1:v" 0.000000000000000e+00
"Vn_D1:i" 7.516847316074630e-14
"Vn_D1:pwr" 0.000000000000000e+00
"Vn_GND:v" 0.000000000000000e+00
"Vn_GND:i" 2.548661352997203e-10
"Vn_GND:pwr" 0.000000000000000e+00
"Vn_SD:v" 0.000000000000000e+00
"Vn_SD:i" -5.105734811631329e-13
"Vn_SD:pwr" -0.000000000000000e+00
"Vn_VDD:v" 1.200000000000000e+00
"Vn_VDD:i" -2.544856208687696e-10
"Vn_VDD:pwr" -3.053827450425236e-10
"Vn_Z:v" 0.000000000000000e+00
"Vn_Z:i" -4.089273154399403e-17
"Vn_Z:pwr" -0.000000000000000e+00
"n_Z" 1.199999494854910e+00
"n_D1" 0.000000000000000e+00
"n_SD" 1.200000000000000e+00
"Vn_D1:n" -7.516847316074630e-14
"Vn_D1:p" 7.516847316074630e-14
"Vn_GND:n" -2.548661352997203e-10
"Vn_GND:p" 2.548661352997203e-10
"Vn_SD:n" 5.105734811631329e-13
"Vn_SD:p" -5.105734811631329e-13
"Vn_VDD:n" 2.544856208687696e-10
"Vn_VDD:p" -2.544856208687696e-10
"Vn_Z:n" 4.089273154399403e-17
"Vn_Z:p" -4.089273154399403e-17
"time" 3.070000000000001e-09
"Vn_D1:v" 0.000000000000000e+00
"Vn_D1:i" 7.517014297485001e-14
"Vn_D1:pwr" 0.000000000000000e+00
"Vn_GND:v" 0.000000000000000e+00
"Vn_GND:i" 2.548661417257512e-10
"Vn_GND:pwr" 0.000000000000000e+00
"Vn_SD:v" 0.000000000000000e+00
"Vn_SD:i" -5.105716656227704e-13
"Vn_SD:pwr" -0.000000000000000e+00
"Vn_VDD:v" 1.200000000000000e+00
"Vn_VDD:i" -2.544856610721376e-10
"Vn_VDD:pwr" -3.053827932865651e-10
"Vn_Z:v" 0.000000000000000e+00
"Vn_Z:i" -1.309076748857933e-17
"Vn_Z:pwr" -0.000000000000000e+00
"n_Z" 1.199999494854727e+00
"n_D1" 0.000000000000000e+00
"n_SD" 1.200000000000000e+00
"Vn_D1:n" -7.517014297485001e-14
"Vn_D1:p" 7.517014297485001e-14
"Vn_GND:n" -2.548661417257512e-10
"Vn_GND:p" 2.548661417257512e-10
"Vn_SD:n" 5.105716656227704e-13
"Vn_SD:p" -5.105716656227704e-13
"Vn_VDD:n" 2.544856610721376e-10
"Vn_VDD:p" -2.544856610721376e-10
"Vn_Z:n" 1.309076748857933e-17
"Vn_Z:p" -1.309076748857933e-17
"time" 3.150000000000003e-09
"Vn_D1:v" 0.000000000000000e+00
"Vn_D1:i" 7.517148076418828e-14
"Vn_D1:pwr" 0.000000000000000e+00
"Vn_GND:v" 0.000000000000000e+00
"Vn_GND:i" 2.548661435840157e-10
"Vn_GND:pwr" 0.000000000000000e+00
"Vn_SD:v" 0.000000000000000e+00
"Vn_SD:i" -5.105699926489643e-13
"Vn_SD:pwr" -0.000000000000000e+00
"Vn_VDD:v" 1.200000000000000e+00
"Vn_VDD:i" -2.544856769046681e-10
"Vn_VDD:pwr" -3.053828122856018e-10
"Vn_Z:v" 0.000000000000000e+00
"Vn_Z:i" 6.953802223258036e-19
"Vn_Z:pwr" 0.000000000000000e+00
"n_Z" 1.199999494854642e+00
"n_D1" 0.000000000000000e+00
"n_SD" 1.200000000000000e+00
"Vn_D1:n" -7.517148076418828e-14
"Vn_D1:p" 7.517148076418828e-14
"Vn_GND:n" -2.548661435840157e-10
"Vn_GND:p" 2.548661435840157e-10
"Vn_SD:n" 5.105699926489643e-13
"Vn_SD:p" -5.105699926489643e-13
"Vn_VDD:n" 2.544856769046681e-10
"Vn_VDD:p" -2.544856769046681e-10
"Vn_Z:n" -6.953802223258036e-19
"Vn_Z:p" 6.953802223258036e-19
"time" 3.310000000000005e-09
"Vn_D1:v" 0.000000000000000e+00
"Vn_D1:i" 7.517099123827012e-14
"Vn_D1:pwr" 0.000000000000000e+00
"Vn_GND:v" 0.000000000000000e+00
"Vn_GND:i" 2.548661316741403e-10
"Vn_GND:pwr" 0.000000000000000e+00
"Vn_SD:v" 0.000000000000000e+00
"Vn_SD:i" -5.105706735187491e-13
"Vn_SD:pwr" -0.000000000000000e+00
"Vn_VDD:v" 1.200000000000000e+00
"Vn_VDD:i" -2.544856654778719e-10
"Vn_VDD:pwr" -3.053827985734463e-10
"Vn_Z:v" 0.000000000000000e+00
"Vn_Z:i" 2.010253120377384e-18
"Vn_Z:pwr" 0.000000000000000e+00
"n_Z" 1.199999494854679e+00
"n_D1" 0.000000000000000e+00
"n_SD" 1.200000000000000e+00
"Vn_D1:n" -7.517099123827012e-14
"Vn_D1:p" 7.517099123827012e-14
"Vn_GND:n" -2.548661316741403e-10
"Vn_GND:p" 2.548661316741403e-10
"Vn_SD:n" 5.105706735187491e-13
"Vn_SD:p" -5.105706735187491e-13
"Vn_VDD:n" 2.544856654778719e-10
"Vn_VDD:p" -2.544856654778719e-10
"Vn_Z:n" -2.010253120377384e-18
"Vn_Z:p" 2.010253120377384e-18
"time" 3.630000000000011e-09
"Vn_D1:v" 0.000000000000000e+00
"Vn_D1:i" 7.517156548651287e-14
"Vn_D1:pwr" 0.000000000000000e+00
"Vn_GND:v" 0.000000000000000e+00
"Vn_GND:i" 2.548661161658167e-10
"Vn_GND:pwr" 0.000000000000000e+00
"Vn_SD:v" 0.000000000000000e+00
"Vn_SD:i" -5.105699535137039e-13
"Vn_SD:pwr" -0.000000000000000e+00
"Vn_VDD:v" 1.200000000000000e+00
"Vn_VDD:i" -2.544856559448117e-10
"Vn_VDD:pwr" -3.053827871337740e-10
"Vn_Z:v" 0.000000000000000e+00
"Vn_Z:i" 6.163091900171808e-19
"Vn_Z:pwr" 0.000000000000000e+00
"n_Z" 1.199999494854750e+00
"n_D1" 0.000000000000000e+00
"n_SD" 1.200000000000000e+00
"Vn_D1:n" -7.517156548651287e-14
"Vn_D1:p" 7.517156548651287e-14
"Vn_GND:n" -2.548661161658167e-10
"Vn_GND:p" 2.548661161658167e-10
"Vn_SD:n" 5.105699535137039e-13
"Vn_SD:p" -5.105699535137039e-13
"Vn_VDD:n" 2.544856559448117e-10
"Vn_VDD:p" -2.544856559448117e-10
"Vn_Z:n" -6.163091900171808e-19
"Vn_Z:p" 6.163091900171808e-19
"time" 4.270000000000022e-09
"Vn_D1:v" 0.000000000000000e+00
"Vn_D1:i" 7.517105243180901e-14
"Vn_D1:pwr" 0.000000000000000e+00
"Vn_GND:v" 0.000000000000000e+00
"Vn_GND:i" 2.548660760617538e-10
"Vn_GND:pwr" 0.000000000000000e+00
"Vn_SD:v" 0.000000000000000e+00
"Vn_SD:i" -5.105705695297052e-13
"Vn_SD:pwr" -0.000000000000000e+00
"Vn_VDD:v" 1.200000000000000e+00
"Vn_VDD:i" -2.544856069417086e-10
"Vn_VDD:pwr" -3.053827283300503e-10
"Vn_Z:v" 0.000000000000000e+00
"Vn_Z:i" 2.817118954382197e-18
"Vn_Z:pwr" 0.000000000000000e+00
"n_Z" 1.199999494854937e+00
"n_D1" 0.000000000000000e+00
"n_SD" 1.200000000000000e+00
"Vn_D1:n" -7.517105243180901e-14
"Vn_D1:p" 7.517105243180901e-14
"Vn_GND:n" -2.548660760617538e-10
"Vn_GND:p" 2.548660760617538e-10
"Vn_SD:n" 5.105705695297052e-13
"Vn_SD:p" -5.105705695297052e-13
"Vn_VDD:n" 2.544856069417086e-10
"Vn_VDD:p" -2.544856069417086e-10
"Vn_Z:n" -2.817118954382197e-18
"Vn_Z:p" 2.817118954382197e-18
"time" 5.050000000000022e-09
"Vn_D1:v" 0.000000000000000e+00
"Vn_D1:i" 7.517151685687054e-14
"Vn_D1:pwr" 0.000000000000000e+00
"Vn_GND:v" 0.000000000000000e+00
"Vn_GND:i" 2.548660333885113e-10
"Vn_GND:pwr" 0.000000000000000e+00
"Vn_SD:v" 0.000000000000000e+00
"Vn_SD:i" -5.105700264070159e-13
"Vn_SD:pwr" -0.000000000000000e+00
"Vn_VDD:v" 1.200000000000000e+00
"Vn_VDD:i" -2.544855686687793e-10
"Vn_VDD:pwr" -3.053826824025352e-10
"Vn_Z:v" 0.000000000000000e+00
"Vn_Z:i" -1.422366295209772e-19
"Vn_Z:pwr" -0.000000000000000e+00
"n_Z" 1.199999494855113e+00
"n_D1" 0.000000000000000e+00
"n_SD" 1.200000000000000e+00
"Vn_D1:n" -7.517151685687054e-14
"Vn_D1:p" 7.517151685687054e-14
"Vn_GND:n" -2.548660333885113e-10
"Vn_GND:p" 2.548660333885113e-10
"Vn_SD:n" 5.105700264070159e-13
"Vn_SD:p" -5.105700264070159e-13
"Vn_VDD:n" 2.544855686687793e-10
"Vn_VDD:p" -2.544855686687793e-10
"Vn_Z:n" 1.422366295209772e-19
"Vn_Z:p" -1.422366295209772e-19
"time" 5.830000000000022e-09
"Vn_D1:v" 0.000000000000000e+00
"Vn_D1:i" 7.517108796059211e-14
"Vn_D1:pwr" 0.000000000000000e+00
"Vn_GND:v" 0.000000000000000e+00
"Vn_GND:i" 2.548659858243589e-10
"Vn_GND:pwr" 0.000000000000000e+00
"Vn_SD:v" 0.000000000000000e+00
"Vn_SD:i" -5.105705158323682e-13
"Vn_SD:pwr" -0.000000000000000e+00
"Vn_VDD:v" 1.200000000000000e+00
"Vn_VDD:i" -2.544855145656824e-10
"Vn_VDD:pwr" -3.053826174788188e-10
"Vn_Z:v" 0.000000000000000e+00
"Vn_Z:i" 3.405465696584987e-18
"Vn_Z:pwr" 0.000000000000000e+00
"n_Z" 1.199999494855329e+00
"n_D1" 0.000000000000000e+00
"n_SD" 1.200000000000000e+00
"Vn_D1:n" -7.517108796059211e-14
"Vn_D1:p" 7.517108796059211e-14
"Vn_GND:n" -2.548659858243589e-10
"Vn_GND:p" 2.548659858243589e-10
"Vn_SD:n" 5.105705158323682e-13
"Vn_SD:p" -5.105705158323682e-13
"Vn_VDD:n" 2.544855145656824e-10
"Vn_VDD:p" -2.544855145656824e-10
"Vn_Z:n" -3.405465696584987e-18
"Vn_Z:p" 3.405465696584987e-18
"time" 6.010000000000000e-09
"Vn_D1:v" 0.000000000000000e+00
"Vn_D1:i" 7.517142069293421e-14
"Vn_D1:pwr" 0.000000000000000e+00
"Vn_GND:v" 0.000000000000000e+00
"Vn_GND:i" 2.548659773911485e-10
"Vn_GND:pwr" 0.000000000000000e+00
"Vn_SD:v" 0.000000000000000e+00
"Vn_SD:i" -5.105701389405229e-13
"Vn_SD:pwr" -0.000000000000000e+00
"Vn_VDD:v" 1.200000000000000e+00
"Vn_VDD:i" -2.544855102401210e-10
"Vn_VDD:pwr" -3.053826122881452e-10
"Vn_Z:v" 0.000000000000000e+00
"Vn_Z:i" -1.484567926039476e-18
"Vn_Z:pwr" -0.000000000000000e+00
"n_Z" 1.199999494855358e+00
"n_D1" 0.000000000000000e+00
"n_SD" 1.200000000000000e+00
"Vn_D1:n" -7.517142069293421e-14
"Vn_D1:p" 7.517142069293421e-14
"Vn_GND:n" -2.548659773911485e-10
"Vn_GND:p" 2.548659773911485e-10
"Vn_SD:n" 5.105701389405229e-13
"Vn_SD:p" -5.105701389405229e-13
"Vn_VDD:n" 2.544855102401210e-10
"Vn_VDD:p" -2.544855102401210e-10
"Vn_Z:n" 1.484567926039476e-18
"Vn_Z:p" -1.484567926039476e-18
"time" 6.019999743400000e-09
"Vn_D1:v" 0.000000000000000e+00
"Vn_D1:i" 7.517126484040182e-14
"Vn_D1:pwr" 0.000000000000000e+00
"Vn_GND:v" 0.000000000000000e+00
"Vn_GND:i" 2.548659758455810e-10
"Vn_GND:pwr" 0.000000000000000e+00
"Vn_SD:v" 0.000000000000000e+00
"Vn_SD:i" -5.105702964747784e-13
"Vn_SD:pwr" -0.000000000000000e+00
"Vn_VDD:v" 1.200000000000000e+00
"Vn_VDD:i" -2.544855100067801e-10
"Vn_VDD:pwr" -3.053826120081361e-10
"Vn_Z:v" 0.000000000000000e+00
"Vn_Z:i" 1.610540040022451e-18
"Vn_Z:pwr" 0.000000000000000e+00
"n_Z" 1.199999494855361e+00
"n_D1" 0.000000000000000e+00
"n_SD" 1.200000000000000e+00
"Vn_D1:n" -7.517126484040182e-14
"Vn_D1:p" 7.517126484040182e-14
"Vn_GND:n" -2.548659758455810e-10
"Vn_GND:p" 2.548659758455810e-10
"Vn_SD:n" 5.105702964747784e-13
"Vn_SD:p" -5.105702964747784e-13
"Vn_VDD:n" 2.544855100067801e-10
"Vn_VDD:p" -2.544855100067801e-10
"Vn_Z:n" -1.610540040022451e-18
"Vn_Z:p" 1.610540040022451e-18
"time" 6.020000000000000e-09
"Vn_D1:v" 0.000000000000000e+00
"Vn_D1:i" -1.075155978013749e-06
"Vn_D1:pwr" -0.000000000000000e+00
"Vn_GND:v" 0.000000000000000e+00
"Vn_GND:i" 1.931705646612552e-07
"Vn_GND:pwr" 0.000000000000000e+00
"Vn_SD:v" 0.000000000000000e+00
"Vn_SD:i" 5.439254805599435e-11
"Vn_SD:pwr" 0.000000000000000e+00
"Vn_VDD:v" 1.200000000000000e+00
"Vn_VDD:i" 8.819306854287231e-07
"Vn_VDD:pwr" 1.058316822514468e-06
"Vn_Z:v" 0.000000000000000e+00
"Vn_Z:i" 2.812352376209638e-13
"Vn_Z:pwr" 0.000000000000000e+00
"n_Z" 1.199999494855373e+00
"n_D1" 2.456722197575741e-07
"n_SD" 1.200000000000000e+00
"Vn_D1:n" 1.075155978013749e-06
"Vn_D1:p" -1.075155978013749e-06
"Vn_GND:n" -1.931705646612552e-07
"Vn_GND:p" 1.931705646612552e-07
"Vn_SD:n" -5.439254805599435e-11
"Vn_SD:p" 5.439254805599435e-11
"Vn_VDD:n" -8.819306854287231e-07
"Vn_VDD:p" 8.819306854287231e-07
"Vn_Z:n" -2.812352376209638e-13
"Vn_Z:p" 2.812352376209638e-13
"time" 6.020000513200001e-09
"Vn_D1:v" 0.000000000000000e+00
"Vn_D1:i" -1.076410568680319e-06
"Vn_D1:pwr" -0.000000000000000e+00
"Vn_GND:v" 0.000000000000000e+00
"Vn_GND:i" 1.933874231280142e-07
"Vn_GND:pwr" 0.000000000000000e+00
"Vn_SD:v" 0.000000000000000e+00
"Vn_SD:i" 1.638496772371644e-10
"Vn_SD:pwr" 0.000000000000000e+00
"Vn_VDD:v" 1.200000000000000e+00
"Vn_VDD:i" 8.828572894254412e-07
"Vn_VDD:pwr" 1.059428747310529e-06
"Vn_Z:v" 0.000000000000000e+00
"Vn_Z:i" 1.951922198169843e-12
"Vn_Z:pwr" 0.000000000000000e+00
"n_Z" 1.199999494855543e+00
"n_D1" 7.370166592727224e-07
"n_SD" 1.200000000000000e+00
"Vn_D1:n" 1.076410568680319e-06
"Vn_D1:p" -1.076410568680319e-06
"Vn_GND:n" -1.933874231280142e-07
"Vn_GND:p" 1.933874231280142e-07
"Vn_SD:n" -1.638496772371644e-10
"Vn_SD:p" 1.638496772371644e-10
"Vn_VDD:n" -8.828572894254412e-07
"Vn_VDD:p" 8.828572894254412e-07
"Vn_Z:n" -1.951922198169843e-12
"Vn_Z:p" 1.951922198169843e-12
"time" 6.020001539600004e-09
"Vn_D1:v" 0.000000000000000e+00
"Vn_D1:i" -1.078910639083092e-06
"Vn_D1:pwr" -0.000000000000000e+00
"Vn_GND:v" 0.000000000000000e+00
"Vn_GND:i" 1.938196676788745e-07
"Vn_GND:pwr" 0.000000000000000e+00
"Vn_SD:v" 0.000000000000000e+00
"Vn_SD:i" 3.820697716803187e-10
"Vn_SD:pwr" 0.000000000000000e+00
"Vn_VDD:v" 1.200000000000000e+00
"Vn_VDD:i" 8.847013716767583e-07
"Vn_VDD:pwr" 1.061641646012110e-06
"Vn_Z:v" 0.000000000000000e+00
"Vn_Z:i" 7.476698166133869e-12
"Vn_Z:pwr" 0.000000000000000e+00
"n_Z" 1.199999494856363e+00
"n_D1" 1.719705538303019e-06
"n_SD" 1.200000000000000e+00
"Vn_D1:n" 1.078910639083092e-06
"Vn_D1:p" -1.078910639083092e-06
"Vn_GND:n" -1.938196676788745e-07
"Vn_GND:p" 1.938196676788745e-07
"Vn_SD:n" -3.820697716803187e-10
"Vn_SD:p" 3.820697716803187e-10
"Vn_VDD:n" -8.847013716767583e-07
"Vn_VDD:p" 8.847013716767583e-07
"Vn_Z:n" -7.476698166133869e-12
"Vn_Z:p" 7.476698166133869e-12
"time" 6.020003592400008e-09
"Vn_D1:v" 0.000000000000000e+00
"Vn_D1:i" -1.083856409807665e-06
"Vn_D1:pwr" -0.000000000000000e+00
"Vn_GND:v" 0.000000000000000e+00
"Vn_GND:i" 1.946754481351307e-07
"Vn_GND:pwr" 0.000000000000000e+00
"Vn_SD:v" 0.000000000000000e+00
"Vn_SD:i" 8.143571936024852e-10
"Vn_SD:pwr" 0.000000000000000e+00
"Vn_VDD:v" 1.200000000000000e+00
"Vn_VDD:i" 8.883353075208828e-07
"Vn_VDD:pwr" 1.066002369025059e-06
"Vn_Z:v" 0.000000000000000e+00
"Vn_Z:i" 3.124060588097235e-11
"Vn_Z:pwr" 0.000000000000000e+00
"n_Z" 1.199999494863098e+00
"n_D1" 3.685083296363612e-06
"n_SD" 1.200000000000000e+00
"Vn_D1:n" 1.083856409807665e-06
"Vn_D1:p" -1.083856409807665e-06
"Vn_GND:n" -1.946754481351307e-07
"Vn_GND:p" 1.946754481351307e-07
"Vn_SD:n" -8.143571936024852e-10
"Vn_SD:p" 8.143571936024852e-10
"Vn_VDD:n" -8.883353075208828e-07
"Vn_VDD:p" 8.883353075208828e-07
"Vn_Z:n" -3.124060588097235e-11
"Vn_Z:p" 3.124060588097235e-11
"time" 6.020007698000017e-09
"Vn_D1:v" 0.000000000000000e+00
"Vn_D1:i" -1.093535525062822e-06
"Vn_D1:pwr" -0.000000000000000e+00
"Vn_GND:v" 0.000000000000000e+00
"Vn_GND:i" 1.963524987407225e-07
"Vn_GND:pwr" 0.000000000000000e+00
"Vn_SD:v" 0.000000000000000e+00
"Vn_SD:i" 1.662510034733182e-09
"Vn_SD:pwr" 0.000000000000000e+00
"Vn_VDD:v" 1.200000000000000e+00
"Vn_VDD:i" 8.953945016997138e-07
"Vn_VDD:pwr" 1.074473402039657e-06
"Vn_Z:v" 0.000000000000000e+00
"Vn_Z:i" 1.259610749287533e-10
"Vn_Z:pwr" 0.000000000000000e+00
"n_Z" 1.199999494917794e+00
"n_D1" 7.615838812484797e-06
"n_SD" 1.200000000000000e+00
"Vn_D1:n" 1.093535525062822e-06
"Vn_D1:p" -1.093535525062822e-06
"Vn_GND:n" -1.963524987407225e-07
"Vn_GND:p" 1.963524987407225e-07
"Vn_SD:n" -1.662510034733182e-09
"Vn_SD:p" 1.662510034733182e-09
"Vn_VDD:n" -8.953945016997138e-07
"Vn_VDD:p" 8.953945016997138e-07
"Vn_Z:n" -1.259610749287533e-10
"Vn_Z:p" 1.259610749287533e-10
"time" 6.020015909200036e-09
"Vn_D1:v" 0.000000000000000e+00
"Vn_D1:i" -1.112079782551544e-06
"Vn_D1:pwr" -0.000000000000000e+00
"Vn_GND:v" 0.000000000000000e+00
"Vn_GND:i" 1.995722243609476e-07
"Vn_GND:pwr" 0.000000000000000e+00
"Vn_SD:v" 0.000000000000000e+00
"Vn_SD:i" 3.294688425499484e-09
"Vn_SD:pwr" 0.000000000000000e+00
"Vn_VDD:v" 1.200000000000000e+00
"Vn_VDD:i" 9.087347668414936e-07
"Vn_VDD:pwr" 1.090481720209792e-06
"Vn_Z:v" 0.000000000000000e+00
"Vn_Z:i" 4.780466865980301e-10
"Vn_Z:pwr" 0.000000000000000e+00
"n_Z" 1.199999495338101e+00
"n_D1" 1.547734984472717e-05
"n_SD" 1.200000000000000e+00
"Vn_D1:n" 1.112079782551544e-06
"Vn_D1:p" -1.112079782551544e-06
"Vn_GND:n" -1.995722243609476e-07
"Vn_GND:p" 1.995722243609476e-07
"Vn_SD:n" -3.294688425499484e-09
"Vn_SD:p" 3.294688425499484e-09
"Vn_VDD:n" -9.087347668414936e-07
"Vn_VDD:p" 9.087347668414936e-07
"Vn_Z:n" -4.780466865980301e-10
"Vn_Z:p" 4.780466865980301e-10
"time" 6.020032331600072e-09
"Vn_D1:v" 0.000000000000000e+00
"Vn_D1:i" -1.137002779292696e-06
"Vn_D1:pwr" -0.000000000000000e+00
"Vn_GND:v" 0.000000000000000e+00
"Vn_GND:i" 2.055244709440653e-07
"Vn_GND:pwr" 0.000000000000000e+00
"Vn_SD:v" 0.000000000000000e+00
"Vn_SD:i" 6.317572406864308e-09
"Vn_SD:pwr" 0.000000000000000e+00
"Vn_VDD:v" 1.200000000000000e+00
"Vn_VDD:i" 9.234906208464930e-07
"Vn_VDD:pwr" 1.108188745015791e-06
"Vn_Z:v" 0.000000000000000e+00
"Vn_Z:i" 1.670061403120127e-09
"Vn_Z:pwr" 0.000000000000000e+00
"n_Z" 1.199999498327685e+00
"n_D1" 3.120037190921192e-05
"n_SD" 1.200000000000000e+00
"Vn_D1:n" 1.137002779292696e-06
"Vn_D1:p" -1.137002779292696e-06
"Vn_GND:n" -2.055244709440653e-07
"Vn_GND:p" 2.055244709440653e-07
"Vn_SD:n" -6.317572406864308e-09
"Vn_SD:p" 6.317572406864308e-09
"Vn_VDD:n" -9.234906208464930e-07
"Vn_VDD:p" 9.234906208464930e-07
"Vn_Z:n" -1.670061403120127e-09
"Vn_Z:p" 1.670061403120127e-09
"time" 6.020065176400145e-09
"Vn_D1:v" 0.000000000000000e+00
"Vn_D1:i" -1.188162976741444e-06
"Vn_D1:pwr" -0.000000000000000e+00
"Vn_GND:v" 0.000000000000000e+00
"Vn_GND:i" 2.157050195969444e-07
"Vn_GND:pwr" 0.000000000000000e+00
"Vn_SD:v" 0.000000000000000e+00
"Vn_SD:i" 1.151605492139637e-08
"Vn_SD:pwr" 0.000000000000000e+00
"Vn_VDD:v" 1.200000000000000e+00
"Vn_VDD:i" 9.557859922703664e-07
"Vn_VDD:pwr" 1.146943190724440e-06
"Vn_Z:v" 0.000000000000000e+00
"Vn_Z:i" 5.155853800955160e-09
"Vn_Z:pwr" 0.000000000000000e+00
"n_Z" 1.199999517327331e+00
"n_D1" 6.264641603818140e-05
"n_SD" 1.200000000000000e+00
"Vn_D1:n" 1.188162976741444e-06
"Vn_D1:p" -1.188162976741444e-06
"Vn_GND:n" -2.157050195969444e-07
"Vn_GND:p" 2.157050195969444e-07
"Vn_SD:n" -1.151605492139637e-08
"Vn_SD:p" 1.151605492139637e-08
"Vn_VDD:n" -9.557859922703664e-07
"Vn_VDD:p" 9.557859922703664e-07
"Vn_Z:n" -5.155853800955160e-09
"Vn_Z:p" 5.155853800955160e-09
"time" 6.020130866000290e-09
"Vn_D1:v" 0.000000000000000e+00
"Vn_D1:i" -1.265528504055754e-06
"Vn_D1:pwr" -0.000000000000000e+00
"Vn_GND:v" 0.000000000000000e+00
"Vn_GND:i" 2.306531041021154e-07
"Vn_GND:pwr" 0.000000000000000e+00
"Vn_SD:v" 0.000000000000000e+00
"Vn_SD:i" 1.928210804361549e-08
"Vn_SD:pwr" 0.000000000000000e+00