HEADER
"PSFversion" "1.00"
"simulator" "spectre"
"version" "10.1.1.164.isr11"
"date" "3:01:57 PM, Fri Oct 17, 2014"
"design" "* Spectre Timing Acquisition"
"analysis type" "tran"
"analysis name" "transient1-014_transient1"
"analysis description" "Transient Analysis `transient1-014_transient1': time = (0 s -> 39 ns)"
"xVecSorted" "ascending"
"tolerance.relative" 0.00100000
"start" 0.00000
"outputstart" 0.00000
"stop" 3.90000e-08
"step" 3.90000e-11
"maxstep" 7.80000e-10
"ic" "all"
"useprevic" "no"
"skipdc" "no"
"reltol" 0.00100000
"abstol(V)" 1.00000e-06
"abstol(I)" 1.00000e-12
"temp" 25.0000
"tnom" 27.0000
"tempeffects" "all"
"errpreset" "moderate"
"method" "traponly"
"lteratio" 3.50000
"relref" "sigglobal"
"cmin" 0.00000
"gmin" 1.00000e-12
TYPE
"sweep" FLOAT DOUBLE PROP(
"key" "sweep"
)
"Tau" FLOAT DOUBLE PROP(
"units" "N*m"
"key" "node"
"tolerance" 1.00000e-06
)
"Alpha" FLOAT DOUBLE PROP(
"units" "rads/s^2"
"key" "node"
"tolerance" 1.00000e-06
)
"Omega" FLOAT DOUBLE PROP(
"units" "rads/s"
"key" "node"
"tolerance" 1.00000e-06
)
"Theta" FLOAT DOUBLE PROP(
"units" "rads"
"key" "node"
"tolerance" 1.00000e-06
)
"F" FLOAT DOUBLE PROP(
"units" "N"
"key" "node"
"tolerance" 1.00000e-06
)
"Imp" FLOAT DOUBLE PROP(
"units" "m/s^3"
"key" "node"
"tolerance" 1.00000e-06
)
"Acc" FLOAT DOUBLE PROP(
"units" "m/s^2"
"key" "node"
"tolerance" 1.00000e-06
)
"Vel" FLOAT DOUBLE PROP(
"units" "m/s"
"key" "node"
"tolerance" 1.00000e-06
)
"Pos" FLOAT DOUBLE PROP(
"units" "m"
"key" "node"
"tolerance" 1.00000e-06
)
"Phi" FLOAT DOUBLE PROP(
"units" "Wb"
"key" "node"
"tolerance" 1.00000e-09
)
"Q" FLOAT DOUBLE PROP(
"units" "coul"
"key" "node"
"tolerance" 1.00000e-14
)
"V" FLOAT DOUBLE PROP(
"units" "V"
"key" "node"
"tolerance" 1.00000e-06
)
"I" FLOAT DOUBLE PROP(
"units" "A"
"key" "branch"
"tolerance" 1.00000e-12
)
"MMF" FLOAT DOUBLE PROP(
"units" "A*turn"
"key" "node"
"tolerance" 1.00000e-12
)
"Wb" FLOAT DOUBLE PROP(
"units" "Wb"
"key" "node"
"tolerance" 1.00000e-09
)
"Temp" FLOAT DOUBLE PROP(
"units" "C"
"key" "node"
"tolerance" 0.000100000
)
"Pwr" FLOAT DOUBLE PROP(
"units" "W"
"key" "node"
"tolerance" 1.00000e-09
)
"U" FLOAT DOUBLE PROP(
"units" ""
"key" "node"
"tolerance" 1.00000e-06
)
"V/Sec" FLOAT DOUBLE PROP(
"units" "V/s"
"key" "node"
"tolerance" 0.000100000
)
"I/Sec" FLOAT DOUBLE PROP(
"units" "A/s"
"key" "node"
"tolerance" 1.00000e-06
)
"1/Sec" FLOAT DOUBLE PROP(
"units" "1/s"
"key" "node"
"tolerance" 0.000100000
)
"HOD" FLOAT DOUBLE PROP(
"units" ""
"key" "node"
"tolerance" 0.0100000
)
"A" FLOAT DOUBLE PROP(
"key" "inst"
)
"W" FLOAT DOUBLE PROP(
"key" "inst"
)
SWEEP
"time" "sweep" PROP(
"sweep_direction" 0
"units" "s"
"plot" 0
"grid" 1
)
TRACE
"Vn_D1:v" "V" PROP(
"units" "V"
)
"Vn_D1:i" "A" PROP(
"units" "A"
)
"Vn_D1:pwr" "W" PROP(
"units" "W"
)
"Vn_GND:v" "V" PROP(
"units" "V"
)
"Vn_GND:i" "A" PROP(
"units" "A"
)
"Vn_GND:pwr" "W" PROP(
"units" "W"
)
"Vn_SD:v" "V" PROP(
"units" "V"
)
"Vn_SD:i" "A" PROP(
"units" "A"
)
"Vn_SD:pwr" "W" PROP(
"units" "W"
)
"Vn_VDD:v" "V" PROP(
"units" "V"
)
"Vn_VDD:i" "A" PROP(
"units" "A"
)
"Vn_VDD:pwr" "W" PROP(
"units" "W"
)
"Vn_Z:v" "V" PROP(
"units" "V"
)
"Vn_Z:i" "A" PROP(
"units" "A"
)
"Vn_Z:pwr" "W" PROP(
"units" "W"
)
"n_Z" "V"
"n_D1" "V"
"n_SD" "V"
"Vn_D1:n" "I"
"Vn_D1:p" "I"
"Vn_GND:n" "I"
"Vn_GND:p" "I"
"Vn_SD:n" "I"
"Vn_SD:p" "I"
"Vn_VDD:n" "I"
"Vn_VDD:p" "I"
"Vn_Z:n" "I"
"Vn_Z:p" "I"
VALUE
"time" 0.000000000000000e+00
"Vn_D1:v" 0.000000000000000e+00
"Vn_D1:i" 7.517119452868265e-14
"Vn_D1:pwr" 0.000000000000000e+00
"Vn_GND:v" 0.000000000000000e+00
"Vn_GND:i" 2.548493107913156e-10
"Vn_GND:pwr" 0.000000000000000e+00
"Vn_SD:v" 0.000000000000000e+00
"Vn_SD:i" -5.105704018311278e-13
"Vn_SD:pwr" -0.000000000000000e+00
"Vn_VDD:v" 1.200000000000000e+00
"Vn_VDD:i" -2.544688430803593e-10
"Vn_VDD:pwr" -3.053626116964312e-10
"Vn_Z:v" 0.000000000000000e+00
"Vn_Z:i" 0.000000000000000e+00
"Vn_Z:pwr" 0.000000000000000e+00
"n_Z" 1.199999494927445e+00
"n_D1" 0.000000000000000e+00
"n_SD" 1.200000000000000e+00
"Vn_D1:n" -7.517119452868265e-14
"Vn_D1:p" 7.517119452868265e-14
"Vn_GND:n" -2.548493107913156e-10
"Vn_GND:p" 2.548493107913156e-10
"Vn_SD:n" 5.105704018311278e-13
"Vn_SD:p" -5.105704018311278e-13
"Vn_VDD:n" 2.544688430803593e-10
"Vn_VDD:p" -2.544688430803593e-10
"Vn_Z:n" 0.000000000000000e+00
"Vn_Z:p" 0.000000000000000e+00
"time" 3.900000000000000e-11
"Vn_D1:v" 0.000000000000000e+00
"Vn_D1:i" 7.486989562248446e-14
"Vn_D1:pwr" 0.000000000000000e+00
"Vn_GND:v" 0.000000000000000e+00
"Vn_GND:i" 2.548643843515857e-10
"Vn_GND:pwr" 0.000000000000000e+00
"Vn_SD:v" 0.000000000000000e+00
"Vn_SD:i" -5.109476834450263e-13
"Vn_SD:pwr" -0.000000000000000e+00
"Vn_VDD:v" 1.200000000000000e+00
"Vn_VDD:i" -2.544780290247770e-10
"Vn_VDD:pwr" -3.053736348297323e-10
"Vn_Z:v" 0.000000000000000e+00
"Vn_Z:i" -5.209034646983821e-15
"Vn_Z:pwr" -0.000000000000000e+00
"n_Z" 1.199999494891167e+00
"n_D1" 0.000000000000000e+00
"n_SD" 1.200000000000000e+00
"Vn_D1:n" -7.486989562248446e-14
"Vn_D1:p" 7.486989562248446e-14
"Vn_GND:n" -2.548643843515857e-10
"Vn_GND:p" 2.548643843515857e-10
"Vn_SD:n" 5.109476834450263e-13
"Vn_SD:p" -5.109476834450263e-13
"Vn_VDD:n" 2.544780290247770e-10
"Vn_VDD:p" -2.544780290247770e-10
"Vn_Z:n" 5.209034646983821e-15
"Vn_Z:p" -5.209034646983821e-15
"time" 1.170000000000000e-10
"Vn_D1:v" 0.000000000000000e+00
"Vn_D1:i" 7.504693484589017e-14
"Vn_D1:pwr" 0.000000000000000e+00
"Vn_GND:v" 0.000000000000000e+00
"Vn_GND:i" 2.548656871658018e-10
"Vn_GND:pwr" 0.000000000000000e+00
"Vn_SD:v" 0.000000000000000e+00
"Vn_SD:i" -5.107129567657489e-13
"Vn_SD:pwr" -0.000000000000000e+00
"Vn_VDD:v" 1.200000000000000e+00
"Vn_VDD:i" -2.544831908323652e-10
"Vn_VDD:pwr" -3.053798289988382e-10
"Vn_Z:v" 0.000000000000000e+00
"Vn_Z:i" -1.761802858349385e-15
"Vn_Z:pwr" -0.000000000000000e+00
"n_Z" 1.199999494866628e+00
"n_D1" 0.000000000000000e+00
"n_SD" 1.200000000000000e+00
"Vn_D1:n" -7.504693484589017e-14
"Vn_D1:p" 7.504693484589017e-14
"Vn_GND:n" -2.548656871658018e-10
"Vn_GND:p" 2.548656871658018e-10
"Vn_SD:n" 5.107129567657489e-13
"Vn_SD:p" -5.107129567657489e-13
"Vn_VDD:n" 2.544831908323652e-10
"Vn_VDD:p" -2.544831908323652e-10
"Vn_Z:n" 1.761802858349385e-15
"Vn_Z:p" -1.761802858349385e-15
"time" 2.730000000000000e-10
"Vn_D1:v" 0.000000000000000e+00
"Vn_D1:i" 7.520911423420944e-14
"Vn_D1:pwr" 0.000000000000000e+00
"Vn_GND:v" 0.000000000000000e+00
"Vn_GND:i" 2.548665130373506e-10
"Vn_GND:pwr" 0.000000000000000e+00
"Vn_SD:v" 0.000000000000000e+00
"Vn_SD:i" -5.105266408022502e-13
"Vn_SD:pwr" -0.000000000000000e+00
"Vn_VDD:v" 1.200000000000000e+00
"Vn_VDD:i" -2.544866855133266e-10
"Vn_VDD:pwr" -3.053840226159919e-10
"Vn_Z:v" 0.000000000000000e+00
"Vn_Z:i" 5.602496337926102e-16
"Vn_Z:pwr" 0.000000000000000e+00
"n_Z" 1.199999494849892e+00
"n_D1" 0.000000000000000e+00
"n_SD" 1.200000000000000e+00
"Vn_D1:n" -7.520911423420944e-14
"Vn_D1:p" 7.520911423420944e-14
"Vn_GND:n" -2.548665130373506e-10
"Vn_GND:p" 2.548665130373506e-10
"Vn_SD:n" 5.105266408022502e-13
"Vn_SD:p" -5.105266408022502e-13
"Vn_VDD:n" 2.544866855133266e-10
"Vn_VDD:p" -2.544866855133266e-10
"Vn_Z:n" -5.602496337926102e-16
"Vn_Z:p" 5.602496337926102e-16
"time" 5.850000000000002e-10
"Vn_D1:v" 0.000000000000000e+00
"Vn_D1:i" 7.514996503361902e-14
"Vn_D1:pwr" 0.000000000000000e+00
"Vn_GND:v" 0.000000000000000e+00
"Vn_GND:i" 2.548661739620104e-10
"Vn_GND:pwr" 0.000000000000000e+00
"Vn_SD:v" 0.000000000000000e+00
"Vn_SD:i" -5.105951014017537e-13
"Vn_SD:pwr" -0.000000000000000e+00
"Vn_VDD:v" 1.200000000000000e+00
"Vn_VDD:i" -2.544853371868713e-10
"Vn_VDD:pwr" -3.053824046242456e-10
"Vn_Z:v" 0.000000000000000e+00
"Vn_Z:i" -3.286555185230908e-16
"Vn_Z:pwr" -0.000000000000000e+00
"n_Z" 1.199999494856344e+00
"n_D1" 0.000000000000000e+00
"n_SD" 1.200000000000000e+00
"Vn_D1:n" -7.514996503361902e-14
"Vn_D1:p" 7.514996503361902e-14
"Vn_GND:n" -2.548661739620104e-10
"Vn_GND:p" 2.548661739620104e-10
"Vn_SD:n" 5.105951014017537e-13
"Vn_SD:p" -5.105951014017537e-13
"Vn_VDD:n" 2.544853371868713e-10
"Vn_VDD:p" -2.544853371868713e-10
"Vn_Z:n" 3.286555185230908e-16
"Vn_Z:p" -3.286555185230908e-16
"time" 1.209000000000000e-09
"Vn_D1:v" 0.000000000000000e+00
"Vn_D1:i" 7.518717941223816e-14
"Vn_D1:pwr" 0.000000000000000e+00
"Vn_GND:v" 0.000000000000000e+00
"Vn_GND:i" 2.548663479262859e-10
"Vn_GND:pwr" 0.000000000000000e+00
"Vn_SD:v" 0.000000000000000e+00
"Vn_SD:i" -5.105516563883755e-13
"Vn_SD:pwr" -0.000000000000000e+00
"Vn_VDD:v" 1.200000000000000e+00
"Vn_VDD:i" -2.544861667362748e-10
"Vn_VDD:pwr" -3.053834000835298e-10
"Vn_Z:v" 0.000000000000000e+00
"Vn_Z:i" 2.568021717431997e-16
"Vn_Z:pwr" 0.000000000000000e+00
"n_Z" 1.199999494852340e+00
"n_D1" 0.000000000000000e+00
"n_SD" 1.200000000000000e+00
"Vn_D1:n" -7.518717941223816e-14
"Vn_D1:p" 7.518717941223816e-14
"Vn_GND:n" -2.548663479262859e-10
"Vn_GND:p" 2.548663479262859e-10
"Vn_SD:n" 5.105516563883755e-13
"Vn_SD:p" -5.105516563883755e-13
"Vn_VDD:n" 2.544861667362748e-10
"Vn_VDD:p" -2.544861667362748e-10
"Vn_Z:n" -2.568021717431997e-16
"Vn_Z:p" 2.568021717431997e-16
"time" 1.989000000000000e-09
"Vn_D1:v" 0.000000000000000e+00
"Vn_D1:i" 7.515886069866979e-14
"Vn_D1:pwr" 0.000000000000000e+00
"Vn_GND:v" 0.000000000000000e+00
"Vn_GND:i" 2.548661363180655e-10
"Vn_GND:pwr" 0.000000000000000e+00
"Vn_SD:v" 0.000000000000000e+00
"Vn_SD:i" -5.105849864780960e-13
"Vn_SD:pwr" -0.000000000000000e+00
"Vn_VDD:v" 1.200000000000000e+00
"Vn_VDD:i" -2.544854406809774e-10
"Vn_VDD:pwr" -3.053825288171729e-10
"Vn_Z:v" 0.000000000000000e+00
"Vn_Z:i" -2.069566135792311e-16
"Vn_Z:pwr" -0.000000000000000e+00
"n_Z" 1.199999494855812e+00
"n_D1" 0.000000000000000e+00
"n_SD" 1.200000000000000e+00
"Vn_D1:n" -7.515886069866979e-14
"Vn_D1:p" 7.515886069866979e-14
"Vn_GND:n" -2.548661363180655e-10
"Vn_GND:p" 2.548661363180655e-10
"Vn_SD:n" 5.105849864780960e-13
"Vn_SD:p" -5.105849864780960e-13
"Vn_VDD:n" 2.544854406809774e-10
"Vn_VDD:p" -2.544854406809774e-10
"Vn_Z:n" 2.069566135792311e-16
"Vn_Z:p" -2.069566135792311e-16
"time" 2.769000000000001e-09
"Vn_D1:v" 0.000000000000000e+00
"Vn_D1:i" 7.518098724102444e-14
"Vn_D1:pwr" 0.000000000000000e+00
"Vn_GND:v" 0.000000000000000e+00
"Vn_GND:i" 2.548662253268217e-10
"Vn_GND:pwr" 0.000000000000000e+00
"Vn_SD:v" 0.000000000000000e+00
"Vn_SD:i" -5.105586841708699e-13
"Vn_SD:pwr" -0.000000000000000e+00
"Vn_VDD:v" 1.200000000000000e+00
"Vn_VDD:i" -2.544859502542047e-10
"Vn_VDD:pwr" -3.053831403050456e-10
"Vn_Z:v" 0.000000000000000e+00
"Vn_Z:i" 1.714555727524030e-16
"Vn_Z:pwr" 0.000000000000000e+00
"n_Z" 1.199999494853339e+00
"n_D1" 0.000000000000000e+00
"n_SD" 1.200000000000000e+00
"Vn_D1:n" -7.518098724102444e-14
"Vn_D1:p" 7.518098724102444e-14
"Vn_GND:n" -2.548662253268217e-10
"Vn_GND:p" 2.548662253268217e-10
"Vn_SD:n" 5.105586841708699e-13
"Vn_SD:p" -5.105586841708699e-13
"Vn_VDD:n" 2.544859502542047e-10
"Vn_VDD:p" -2.544859502542047e-10
"Vn_Z:n" -1.714555727524030e-16
"Vn_Z:p" 1.714555727524030e-16
"time" 3.000000000000000e-09
"Vn_D1:v" 0.000000000000000e+00
"Vn_D1:i" 7.516766242871018e-14
"Vn_D1:pwr" 0.000000000000000e+00
"Vn_GND:v" 0.000000000000000e+00
"Vn_GND:i" 2.548661214466363e-10
"Vn_GND:pwr" 0.000000000000000e+00
"Vn_SD:v" 0.000000000000000e+00
"Vn_SD:i" -5.105750361951624e-13
"Vn_SD:pwr" -0.000000000000000e+00
"Vn_VDD:v" 1.200000000000000e+00
"Vn_VDD:i" -2.544855648683178e-10
"Vn_VDD:pwr" -3.053826778419814e-10
"Vn_Z:v" 0.000000000000000e+00
"Vn_Z:i" -8.207961547164269e-17
"Vn_Z:pwr" -0.000000000000000e+00
"n_Z" 1.199999494855183e+00
"n_D1" 0.000000000000000e+00
"n_SD" 1.200000000000000e+00
"Vn_D1:n" -7.516766242871018e-14
"Vn_D1:p" 7.516766242871018e-14
"Vn_GND:n" -2.548661214466363e-10
"Vn_GND:p" 2.548661214466363e-10
"Vn_SD:n" 5.105750361951624e-13
"Vn_SD:p" -5.105750361951624e-13
"Vn_VDD:n" 2.544855648683178e-10
"Vn_VDD:p" -2.544855648683178e-10
"Vn_Z:n" 8.207961547164269e-17
"Vn_Z:p" -8.207961547164269e-17
"time" 3.010000000000000e-09
"Vn_D1:v" 0.000000000000000e+00
"Vn_D1:i" 7.516699615374421e-14
"Vn_D1:pwr" 0.000000000000000e+00
"Vn_GND:v" 0.000000000000000e+00
"Vn_GND:i" 2.548661273872757e-10
"Vn_GND:pwr" 0.000000000000000e+00
"Vn_SD:v" 0.000000000000000e+00
"Vn_SD:i" -5.105748972324874e-13
"Vn_SD:pwr" -0.000000000000000e+00
"Vn_VDD:v" 1.200000000000000e+00
"Vn_VDD:i" -2.544855881757480e-10
"Vn_VDD:pwr" -3.053827058108977e-10
"Vn_Z:v" 0.000000000000000e+00
"Vn_Z:i" -6.283178029827617e-17
"Vn_Z:pwr" -0.000000000000000e+00
"n_Z" 1.199999494855071e+00
"n_D1" 0.000000000000000e+00
"n_SD" 1.200000000000000e+00
"Vn_D1:n" -7.516699615374421e-14
"Vn_D1:p" 7.516699615374421e-14
"Vn_GND:n" -2.548661273872757e-10
"Vn_GND:p" 2.548661273872757e-10
"Vn_SD:n" 5.105748972324874e-13
"Vn_SD:p" -5.105748972324874e-13
"Vn_VDD:n" 2.544855881757480e-10
"Vn_VDD:p" -2.544855881757480e-10
"Vn_Z:n" 6.283178029827617e-17
"Vn_Z:p" -6.283178029827617e-17
"time" 3.030000000000000e-09
"Vn_D1:v" 0.000000000000000e+00
"Vn_D1:i" 7.516824690878187e-14
"Vn_D1:pwr" 0.000000000000000e+00
"Vn_GND:v" 0.000000000000000e+00
"Vn_GND:i" 2.548661342496379e-10
"Vn_GND:pwr" 0.000000000000000e+00
"Vn_SD:v" 0.000000000000000e+00
"Vn_SD:i" -5.105736492415815e-13
"Vn_SD:pwr" -0.000000000000000e+00
"Vn_VDD:v" 1.200000000000000e+00
"Vn_VDD:i" -2.544856187578005e-10
"Vn_VDD:pwr" -3.053827425093606e-10
"Vn_Z:v" 0.000000000000000e+00
"Vn_Z:i" -4.155305402806494e-17
"Vn_Z:pwr" -0.000000000000000e+00
"n_Z" 1.199999494854922e+00
"n_D1" 0.000000000000000e+00
"n_SD" 1.200000000000000e+00
"Vn_D1:n" -7.516824690878187e-14
"Vn_D1:p" 7.516824690878187e-14
"Vn_GND:n" -2.548661342496379e-10
"Vn_GND:p" 2.548661342496379e-10
"Vn_SD:n" 5.105736492415815e-13
"Vn_SD:p" -5.105736492415815e-13
"Vn_VDD:n" 2.544856187578005e-10
"Vn_VDD:p" -2.544856187578005e-10
"Vn_Z:n" 4.155305402806494e-17
"Vn_Z:p" -4.155305402806494e-17
"time" 3.070000000000001e-09
"Vn_D1:v" 0.000000000000000e+00
"Vn_D1:i" 7.517024237026925e-14
"Vn_D1:pwr" 0.000000000000000e+00
"Vn_GND:v" 0.000000000000000e+00
"Vn_GND:i" 2.548661422677088e-10
"Vn_GND:pwr" 0.000000000000000e+00
"Vn_SD:v" 0.000000000000000e+00
"Vn_SD:i" -5.105715814050168e-13
"Vn_SD:pwr" -0.000000000000000e+00
"Vn_VDD:v" 1.200000000000000e+00
"Vn_VDD:i" -2.544856602082700e-10
"Vn_VDD:pwr" -3.053827922499240e-10
"Vn_Z:v" 0.000000000000000e+00
"Vn_Z:i" -1.237824811627765e-17
"Vn_Z:pwr" -0.000000000000000e+00
"n_Z" 1.199999494854730e+00
"n_D1" 0.000000000000000e+00
"n_SD" 1.200000000000000e+00
"Vn_D1:n" -7.517024237026925e-14
"Vn_D1:p" 7.517024237026925e-14
"Vn_GND:n" -2.548661422677088e-10
"Vn_GND:p" 2.548661422677088e-10
"Vn_SD:n" 5.105715814050168e-13
"Vn_SD:p" -5.105715814050168e-13
"Vn_VDD:n" 2.544856602082700e-10
"Vn_VDD:p" -2.544856602082700e-10
"Vn_Z:n" 1.237824811627765e-17
"Vn_Z:p" -1.237824811627765e-17
"time" 3.150000000000003e-09
"Vn_D1:v" 0.000000000000000e+00
"Vn_D1:i" 7.517144390388596e-14
"Vn_D1:pwr" 0.000000000000000e+00
"Vn_GND:v" 0.000000000000000e+00
"Vn_GND:i" 2.548661433339391e-10
"Vn_GND:pwr" 0.000000000000000e+00
"Vn_SD:v" 0.000000000000000e+00
"Vn_SD:i" -5.105699618738489e-13
"Vn_SD:pwr" -0.000000000000000e+00
"Vn_VDD:v" 1.200000000000000e+00
"Vn_VDD:i" -2.544856715208917e-10
"Vn_VDD:pwr" -3.053828058250700e-10
"Vn_Z:v" 0.000000000000000e+00
"Vn_Z:i" 1.539516740474348e-18
"Vn_Z:pwr" 0.000000000000000e+00
"n_Z" 1.199999494854652e+00
"n_D1" 0.000000000000000e+00
"n_SD" 1.200000000000000e+00
"Vn_D1:n" -7.517144390388596e-14
"Vn_D1:p" 7.517144390388596e-14
"Vn_GND:n" -2.548661433339391e-10
"Vn_GND:p" 2.548661433339391e-10
"Vn_SD:n" 5.105699618738489e-13
"Vn_SD:p" -5.105699618738489e-13
"Vn_VDD:n" 2.544856715208917e-10
"Vn_VDD:p" -2.544856715208917e-10
"Vn_Z:n" -1.539516740474348e-18
"Vn_Z:p" 1.539516740474348e-18
"time" 3.310000000000005e-09
"Vn_D1:v" 0.000000000000000e+00
"Vn_D1:i" 7.517108662908237e-14
"Vn_D1:pwr" 0.000000000000000e+00
"Vn_GND:v" 0.000000000000000e+00
"Vn_GND:i" 2.548661323230682e-10
"Vn_GND:pwr" 0.000000000000000e+00
"Vn_SD:v" 0.000000000000000e+00
"Vn_SD:i" -5.105707210748966e-13
"Vn_SD:pwr" -0.000000000000000e+00
"Vn_VDD:v" 1.200000000000000e+00
"Vn_VDD:i" -2.544856726586201e-10
"Vn_VDD:pwr" -3.053828071903441e-10
"Vn_Z:v" 0.000000000000000e+00
"Vn_Z:i" 3.990142088240064e-19
"Vn_Z:pwr" 0.000000000000000e+00
"n_Z" 1.199999494854680e+00
"n_D1" 0.000000000000000e+00
"n_SD" 1.200000000000000e+00
"Vn_D1:n" -7.517108662908237e-14
"Vn_D1:p" 7.517108662908237e-14
"Vn_GND:n" -2.548661323230682e-10
"Vn_GND:p" 2.548661323230682e-10
"Vn_SD:n" 5.105707210748966e-13
"Vn_SD:p" -5.105707210748966e-13
"Vn_VDD:n" 2.544856726586201e-10
"Vn_VDD:p" -2.544856726586201e-10
"Vn_Z:n" -3.990142088240064e-19
"Vn_Z:p" 3.990142088240064e-19
"time" 3.630000000000011e-09
"Vn_D1:v" 0.000000000000000e+00
"Vn_D1:i" 7.517160421091288e-14
"Vn_D1:pwr" 0.000000000000000e+00
"Vn_GND:v" 0.000000000000000e+00
"Vn_GND:i" 2.548661163129807e-10
"Vn_GND:pwr" 0.000000000000000e+00
"Vn_SD:v" 0.000000000000000e+00
"Vn_SD:i" -5.105696778763443e-13
"Vn_SD:pwr" -0.000000000000000e+00
"Vn_VDD:v" 1.200000000000000e+00
"Vn_VDD:i" -2.544856392861818e-10
"Vn_VDD:pwr" -3.053827671434181e-10
"Vn_Z:v" 0.000000000000000e+00
"Vn_Z:i" 2.749449917654997e-18
"Vn_Z:pwr" 0.000000000000000e+00
"n_Z" 1.199999494854770e+00
"n_D1" 0.000000000000000e+00
"n_SD" 1.200000000000000e+00
"Vn_D1:n" -7.517160421091288e-14
"Vn_D1:p" 7.517160421091288e-14
"Vn_GND:n" -2.548661163129807e-10
"Vn_GND:p" 2.548661163129807e-10
"Vn_SD:n" 5.105696778763443e-13
"Vn_SD:p" -5.105696778763443e-13
"Vn_VDD:n" 2.544856392861818e-10
"Vn_VDD:p" -2.544856392861818e-10
"Vn_Z:n" -2.749449917654997e-18
"Vn_Z:p" 2.749449917654997e-18
"time" 4.270000000000022e-09
"Vn_D1:v" 0.000000000000000e+00
"Vn_D1:i" 7.517088704660388e-14
"Vn_D1:pwr" 0.000000000000000e+00
"Vn_GND:v" 0.000000000000000e+00
"Vn_GND:i" 2.548660751146706e-10
"Vn_GND:pwr" 0.000000000000000e+00
"Vn_SD:v" 0.000000000000000e+00
"Vn_SD:i" -5.105710338734368e-13
"Vn_SD:pwr" -0.000000000000000e+00
"Vn_VDD:v" 1.200000000000000e+00
"Vn_VDD:i" -2.544856205094226e-10
"Vn_VDD:pwr" -3.053827446113072e-10
"Vn_Z:v" 0.000000000000000e+00
"Vn_Z:i" -1.052867146284805e-19
"Vn_Z:pwr" -0.000000000000000e+00
"n_Z" 1.199999494854921e+00
"n_D1" 0.000000000000000e+00
"n_SD" 1.200000000000000e+00
"Vn_D1:n" -7.517088704660388e-14
"Vn_D1:p" 7.517088704660388e-14
"Vn_GND:n" -2.548660751146706e-10
"Vn_GND:p" 2.548660751146706e-10
"Vn_SD:n" 5.105710338734368e-13
"Vn_SD:p" -5.105710338734368e-13
"Vn_VDD:n" 2.544856205094226e-10
"Vn_VDD:p" -2.544856205094226e-10
"Vn_Z:n" 1.052867146284805e-19
"Vn_Z:p" -1.052867146284805e-19
"time" 5.050000000000022e-09
"Vn_D1:v" 0.000000000000000e+00
"Vn_D1:i" 7.517160537846650e-14
"Vn_D1:pwr" 0.000000000000000e+00
"Vn_GND:v" 0.000000000000000e+00
"Vn_GND:i" 2.548660338834973e-10
"Vn_GND:pwr" 0.000000000000000e+00
"Vn_SD:v" 0.000000000000000e+00
"Vn_SD:i" -5.105696084763008e-13
"Vn_SD:pwr" -0.000000000000000e+00
"Vn_VDD:v" 1.200000000000000e+00
"Vn_VDD:i" -2.544855590315529e-10
"Vn_VDD:pwr" -3.053826708378635e-10
"Vn_Z:v" 0.000000000000000e+00
"Vn_Z:i" 3.046846567054759e-18
"Vn_Z:pwr" 0.000000000000000e+00
"n_Z" 1.199999494855126e+00
"n_D1" 0.000000000000000e+00
"n_SD" 1.200000000000000e+00
"Vn_D1:n" -7.517160537846650e-14
"Vn_D1:p" 7.517160537846650e-14
"Vn_GND:n" -2.548660338834973e-10
"Vn_GND:p" 2.548660338834973e-10
"Vn_SD:n" 5.105696084763008e-13
"Vn_SD:p" -5.105696084763008e-13
"Vn_VDD:n" 2.544855590315529e-10
"Vn_VDD:p" -2.544855590315529e-10
"Vn_Z:n" -3.046846567054759e-18
"Vn_Z:p" 3.046846567054759e-18
"time" 5.830000000000022e-09
"Vn_D1:v" 0.000000000000000e+00
"Vn_D1:i" 7.517089222087622e-14
"Vn_D1:pwr" 0.000000000000000e+00
"Vn_GND:v" 0.000000000000000e+00
"Vn_GND:i" 2.548659845771301e-10
"Vn_GND:pwr" 0.000000000000000e+00
"Vn_SD:v" 0.000000000000000e+00
"Vn_SD:i" -5.105710937819933e-13
"Vn_SD:pwr" -0.000000000000000e+00
"Vn_VDD:v" 1.200000000000000e+00
"Vn_VDD:i" -2.544855263319495e-10
"Vn_VDD:pwr" -3.053826315983394e-10
"Vn_Z:v" 0.000000000000000e+00
"Vn_Z:i" -4.082451004969122e-19
"Vn_Z:pwr" -0.000000000000000e+00
"n_Z" 1.199999494855310e+00
"n_D1" 0.000000000000000e+00
"n_SD" 1.200000000000000e+00
"Vn_D1:n" -7.517089222087622e-14
"Vn_D1:p" 7.517089222087622e-14
"Vn_GND:n" -2.548659845771301e-10
"Vn_GND:p" 2.548659845771301e-10
"Vn_SD:n" 5.105710937819933e-13
"Vn_SD:p" -5.105710937819933e-13
"Vn_VDD:n" 2.544855263319495e-10
"Vn_VDD:p" -2.544855263319495e-10
"Vn_Z:n" 4.082451004969122e-19
"Vn_Z:p" -4.082451004969122e-19
"time" 6.010000000000000e-09
"Vn_D1:v" 0.000000000000000e+00
"Vn_D1:i" 7.517177284150451e-14
"Vn_D1:pwr" 0.000000000000000e+00
"Vn_GND:v" 0.000000000000000e+00
"Vn_GND:i" 2.548659796941431e-10
"Vn_GND:pwr" 0.000000000000000e+00
"Vn_SD:v" 0.000000000000000e+00
"Vn_SD:i" -5.105692740126439e-13
"Vn_SD:pwr" -0.000000000000000e+00
"Vn_VDD:v" 1.200000000000000e+00
"Vn_VDD:i" -2.544855034976166e-10
"Vn_VDD:pwr" -3.053826041971400e-10
"Vn_Z:v" 0.000000000000000e+00
"Vn_Z:i" 3.822031121543305e-18
"Vn_Z:pwr" 0.000000000000000e+00
"n_Z" 1.199999494855365e+00
"n_D1" 0.000000000000000e+00
"n_SD" 1.200000000000000e+00
"Vn_D1:n" -7.517177284150451e-14
"Vn_D1:p" 7.517177284150451e-14
"Vn_GND:n" -2.548659796941431e-10
"Vn_GND:p" 2.548659796941431e-10
"Vn_SD:n" 5.105692740126439e-13
"Vn_SD:p" -5.105692740126439e-13
"Vn_VDD:n" 2.544855034976166e-10
"Vn_VDD:p" -2.544855034976166e-10
"Vn_Z:n" -3.822031121543305e-18
"Vn_Z:p" 3.822031121543305e-18
"time" 6.019999743400000e-09
"Vn_D1:v" 0.000000000000000e+00
"Vn_D1:i" 7.517145676411166e-14
"Vn_D1:pwr" 0.000000000000000e+00
"Vn_GND:v" 0.000000000000000e+00
"Vn_GND:i" 2.548659759040905e-10
"Vn_GND:pwr" 0.000000000000000e+00
"Vn_SD:v" 0.000000000000000e+00
"Vn_SD:i" -5.105705664259726e-13
"Vn_SD:pwr" -0.000000000000000e+00
"Vn_VDD:v" 1.200000000000000e+00
"Vn_VDD:i" -2.544855089170922e-10
"Vn_VDD:pwr" -3.053826107005106e-10
"Vn_Z:v" 0.000000000000000e+00
"Vn_Z:i" 5.014858993278307e-19
"Vn_Z:pwr" 0.000000000000000e+00
"n_Z" 1.199999494855366e+00
"n_D1" 0.000000000000000e+00
"n_SD" 1.200000000000000e+00
"Vn_D1:n" -7.517145676411166e-14
"Vn_D1:p" 7.517145676411166e-14
"Vn_GND:n" -2.548659759040905e-10
"Vn_GND:p" 2.548659759040905e-10
"Vn_SD:n" 5.105705664259726e-13
"Vn_SD:p" -5.105705664259726e-13
"Vn_VDD:n" 2.544855089170922e-10
"Vn_VDD:p" -2.544855089170922e-10
"Vn_Z:n" -5.014858993278307e-19
"Vn_Z:p" 5.014858993278307e-19
"time" 6.020000000000000e-09
"Vn_D1:v" 0.000000000000000e+00
"Vn_D1:i" -1.075155978013539e-06
"Vn_D1:pwr" -0.000000000000000e+00
"Vn_GND:v" 0.000000000000000e+00
"Vn_GND:i" 1.931705677759251e-07
"Vn_GND:pwr" 0.000000000000000e+00
"Vn_SD:v" 0.000000000000000e+00
"Vn_SD:i" 5.439222772533247e-11
"Vn_SD:pwr" 0.000000000000000e+00
"Vn_VDD:v" 1.200000000000000e+00
"Vn_VDD:i" 8.819306846706014e-07
"Vn_VDD:pwr" 1.058316821604722e-06
"Vn_Z:v" 0.000000000000000e+00
"Vn_Z:i" 2.812180281048376e-13
"Vn_Z:pwr" 0.000000000000000e+00
"n_Z" 1.199999494855379e+00
"n_D1" 2.456722197575741e-07
"n_SD" 1.200000000000000e+00
"Vn_D1:n" 1.075155978013539e-06
"Vn_D1:p" -1.075155978013539e-06
"Vn_GND:n" -1.931705677759251e-07
"Vn_GND:p" 1.931705677759251e-07
"Vn_SD:n" -5.439222772533247e-11
"Vn_SD:p" 5.439222772533247e-11
"Vn_VDD:n" -8.819306846706014e-07
"Vn_VDD:p" 8.819306846706014e-07
"Vn_Z:n" -2.812180281048376e-13
"Vn_Z:p" 2.812180281048376e-13
"time" 6.020000513200001e-09
"Vn_D1:v" 0.000000000000000e+00
"Vn_D1:i" -1.076410568908613e-06
"Vn_D1:pwr" -0.000000000000000e+00
"Vn_GND:v" 0.000000000000000e+00
"Vn_GND:i" 1.933874223914740e-07
"Vn_GND:pwr" 0.000000000000000e+00
"Vn_SD:v" 0.000000000000000e+00
"Vn_SD:i" 1.638498764797739e-10
"Vn_SD:pwr" 0.000000000000000e+00
"Vn_VDD:v" 1.200000000000000e+00
"Vn_VDD:i" 8.828572895898668e-07
"Vn_VDD:pwr" 1.059428747507840e-06
"Vn_Z:v" 0.000000000000000e+00
"Vn_Z:i" 1.951602659204774e-12
"Vn_Z:pwr" 0.000000000000000e+00
"n_Z" 1.199999494855557e+00
"n_D1" 7.370166592727224e-07
"n_SD" 1.200000000000000e+00
"Vn_D1:n" 1.076410568908613e-06
"Vn_D1:p" -1.076410568908613e-06
"Vn_GND:n" -1.933874223914740e-07
"Vn_GND:p" 1.933874223914740e-07
"Vn_SD:n" -1.638498764797739e-10
"Vn_SD:p" 1.638498764797739e-10
"Vn_VDD:n" -8.828572895898668e-07
"Vn_VDD:p" 8.828572895898668e-07
"Vn_Z:n" -1.951602659204774e-12
"Vn_Z:p" 1.951602659204774e-12
"time" 6.020001539600004e-09
"Vn_D1:v" 0.000000000000000e+00
"Vn_D1:i" -1.078910638365981e-06
"Vn_D1:pwr" -0.000000000000000e+00
"Vn_GND:v" 0.000000000000000e+00
"Vn_GND:i" 1.938196687916689e-07
"Vn_GND:pwr" 0.000000000000000e+00
"Vn_SD:v" 0.000000000000000e+00
"Vn_SD:i" 3.820700639648333e-10
"Vn_SD:pwr" 0.000000000000000e+00
"Vn_VDD:v" 1.200000000000000e+00
"Vn_VDD:i" 8.847013706905358e-07
"Vn_VDD:pwr" 1.061641644828643e-06
"Vn_Z:v" 0.000000000000000e+00
"Vn_Z:i" 7.474905603887011e-12
"Vn_Z:pwr" 0.000000000000000e+00
"n_Z" 1.199999494856421e+00
"n_D1" 1.719705538303019e-06
"n_SD" 1.200000000000000e+00
"Vn_D1:n" 1.078910638365981e-06
"Vn_D1:p" -1.078910638365981e-06
"Vn_GND:n" -1.938196687916689e-07
"Vn_GND:p" 1.938196687916689e-07
"Vn_SD:n" -3.820700639648333e-10
"Vn_SD:p" 3.820700639648333e-10
"Vn_VDD:n" -8.847013706905358e-07
"Vn_VDD:p" 8.847013706905358e-07
"Vn_Z:n" -7.474905603887011e-12
"Vn_Z:p" 7.474905603887011e-12
"time" 6.020003592400008e-09
"Vn_D1:v" 0.000000000000000e+00
"Vn_D1:i" -1.083856410155052e-06
"Vn_D1:pwr" -0.000000000000000e+00
"Vn_GND:v" 0.000000000000000e+00
"Vn_GND:i" 1.946754521441817e-07
"Vn_GND:pwr" 0.000000000000000e+00
"Vn_SD:v" 0.000000000000000e+00
"Vn_SD:i" 8.143574553582226e-10
"Vn_SD:pwr" 0.000000000000000e+00
"Vn_VDD:v" 1.200000000000000e+00
"Vn_VDD:i" 8.883353178481861e-07
"Vn_VDD:pwr" 1.066002381417823e-06
"Vn_Z:v" 0.000000000000000e+00
"Vn_Z:i" 3.122681689242799e-11
"Vn_Z:pwr" 0.000000000000000e+00
"n_Z" 1.199999494863515e+00
"n_D1" 3.685083296363612e-06
"n_SD" 1.200000000000000e+00
"Vn_D1:n" 1.083856410155052e-06
"Vn_D1:p" -1.083856410155052e-06
"Vn_GND:n" -1.946754521441817e-07
"Vn_GND:p" 1.946754521441817e-07
"Vn_SD:n" -8.143574553582226e-10
"Vn_SD:p" 8.143574553582226e-10
"Vn_VDD:n" -8.883353178481861e-07
"Vn_VDD:p" 8.883353178481861e-07
"Vn_Z:n" -3.122681689242799e-11
"Vn_Z:p" 3.122681689242799e-11
"time" 6.020007698000017e-09
"Vn_D1:v" 0.000000000000000e+00
"Vn_D1:i" -1.093535524603269e-06
"Vn_D1:pwr" -0.000000000000000e+00
"Vn_GND:v" 0.000000000000000e+00
"Vn_GND:i" 1.963525343546067e-07
"Vn_GND:pwr" 0.000000000000000e+00
"Vn_SD:v" 0.000000000000000e+00
"Vn_SD:i" 1.662524959773381e-09
"Vn_SD:pwr" 0.000000000000000e+00
"Vn_VDD:v" 1.200000000000000e+00
"Vn_VDD:i" 8.953945596127096e-07
"Vn_VDD:pwr" 1.074473471535252e-06
"Vn_Z:v" 0.000000000000000e+00
"Vn_Z:i" 1.258519262449779e-10
"Vn_Z:pwr" 0.000000000000000e+00
"n_Z" 1.199999494921095e+00
"n_D1" 7.615838812484797e-06
"n_SD" 1.200000000000000e+00
"Vn_D1:n" 1.093535524603269e-06
"Vn_D1:p" -1.093535524603269e-06
"Vn_GND:n" -1.963525343546067e-07
"Vn_GND:p" 1.963525343546067e-07
"Vn_SD:n" -1.662524959773381e-09
"Vn_SD:p" 1.662524959773381e-09
"Vn_VDD:n" -8.953945596127096e-07
"Vn_VDD:p" 8.953945596127096e-07
"Vn_Z:n" -1.258519262449779e-10
"Vn_Z:p" 1.258519262449779e-10
"time" 6.020015909200036e-09
"Vn_D1:v" 0.000000000000000e+00
"Vn_D1:i" -1.112079782940036e-06
"Vn_D1:pwr" -0.000000000000000e+00
"Vn_GND:v" 0.000000000000000e+00
"Vn_GND:i" 1.995724823149231e-07
"Vn_GND:pwr" 0.000000000000000e+00
"Vn_SD:v" 0.000000000000000e+00
"Vn_SD:i" 3.294786417592676e-09
"Vn_SD:pwr" 0.000000000000000e+00
"Vn_VDD:v" 1.200000000000000e+00
"Vn_VDD:i" 9.087352241357295e-07
"Vn_VDD:pwr" 1.090482268962875e-06
"Vn_Z:v" 0.000000000000000e+00
"Vn_Z:i" 4.772340454797560e-10
"Vn_Z:pwr" 0.000000000000000e+00
"n_Z" 1.199999495363244e+00
"n_D1" 1.547734984472717e-05
"n_SD" 1.200000000000000e+00
"Vn_D1:n" 1.112079782940036e-06
"Vn_D1:p" -1.112079782940036e-06
"Vn_GND:n" -1.995724823149231e-07
"Vn_GND:p" 1.995724823149231e-07
"Vn_SD:n" -3.294786417592676e-09
"Vn_SD:p" 3.294786417592676e-09
"Vn_VDD:n" -9.087352241357295e-07
"Vn_VDD:p" 9.087352241357295e-07
"Vn_Z:n" -4.772340454797560e-10
"Vn_Z:p" 4.772340454797560e-10
"time" 6.020032331600072e-09
"Vn_D1:v" 0.000000000000000e+00
"Vn_D1:i" -1.137002777293020e-06
"Vn_D1:pwr" -0.000000000000000e+00
"Vn_GND:v" 0.000000000000000e+00
"Vn_GND:i" 2.055261671162710e-07
"Vn_GND:pwr" 0.000000000000000e+00
"Vn_SD:v" 0.000000000000000e+00
"Vn_SD:i" 6.318244523616524e-09
"Vn_SD:pwr" 0.000000000000000e+00
"Vn_VDD:v" 1.200000000000000e+00
"Vn_VDD:i" 9.234936839230963e-07
"Vn_VDD:pwr" 1.108192420707716e-06
"Vn_Z:v" 0.000000000000000e+00
"Vn_Z:i" 1.664627784995908e-09
"Vn_Z:pwr" 0.000000000000000e+00
"n_Z" 1.199999498503825e+00
"n_D1" 3.120037190921192e-05
"n_SD" 1.200000000000000e+00
"Vn_D1:n" 1.137002777293020e-06
"Vn_D1:p" -1.137002777293020e-06
"Vn_GND:n" -2.055261671162710e-07
"Vn_GND:p" 2.055261671162710e-07
"Vn_SD:n" -6.318244523616524e-09
"Vn_SD:p" 6.318244523616524e-09
"Vn_VDD:n" -9.234936839230963e-07
"Vn_VDD:p" 9.234936839230963e-07
"Vn_Z:n" -1.664627784995908e-09
"Vn_Z:p" 1.664627784995908e-09
"time" 6.020065176400145e-09
"Vn_D1:v" 0.000000000000000e+00
"Vn_D1:i" -1.188162964623606e-06
"Vn_D1:pwr" -0.000000000000000e+00
"Vn_GND:v" 0.000000000000000e+00
"Vn_GND:i" 2.157142334205564e-07
"Vn_GND:pwr" 0.000000000000000e+00
"Vn_SD:v" 0.000000000000000e+00
"Vn_SD:i" 1.151989613237206e-08
"Vn_SD:pwr" 0.000000000000000e+00
"Vn_VDD:v" 1.200000000000000e+00
"Vn_VDD:i" 9.558036238856281e-07
"Vn_VDD:pwr" 1.146964348662754e-06
"Vn_Z:v" 0.000000000000000e+00
"Vn_Z:i" 5.125155250584531e-09
"Vn_Z:pwr" 0.000000000000000e+00
"n_Z" 1.199999518415349e+00
"n_D1" 6.264641603818140e-05
"n_SD" 1.200000000000000e+00
"Vn_D1:n" 1.188162964623606e-06
"Vn_D1:p" -1.188162964623606e-06
"Vn_GND:n" -2.157142334205564e-07
"Vn_GND:p" 2.157142334205564e-07
"Vn_SD:n" -1.151989613237206e-08
"Vn_SD:p" 1.151989613237206e-08
"Vn_VDD:n" -9.558036238856281e-07
"Vn_VDD:p" 9.558036238856281e-07
"Vn_Z:n" -5.125155250584531e-09
"Vn_Z:p" 5.125155250584531e-09
"time" 6.020130866000290e-09
"Vn_D1:v" 0.000000000000000e+00
"Vn_D1:i" -1.265528436320132e-06
"Vn_D1:pwr" -0.000000000000000e+00
"Vn_GND:v" 0.000000000000000e+00
"Vn_GND:i" 2.306907693197865e-07
"Vn_GND:pwr" 0.000000000000000e+00
"Vn_SD:v" 0.000000000000000e+00
"Vn_SD:i" 1.929927770978786e-08
"Vn_SD:pwr" 0.000000000000000e+00