HEADER
"PSFversion" "1.00"
"simulator" "spectre"
"version" "10.1.1.164.isr11"
"date" "3:01:57 PM, Fri Oct 17, 2014"
"design" "* Spectre Timing Acquisition"
"analysis type" "tran"
"analysis name" "transient1-025_transient1"
"analysis description" "Transient Analysis `transient1-025_transient1': time = (0 s -> 39 ns)"
"xVecSorted" "ascending"
"tolerance.relative" 0.00100000
"start" 0.00000
"outputstart" 0.00000
"stop" 3.90000e-08
"step" 3.90000e-11
"maxstep" 7.80000e-10
"ic" "all"
"useprevic" "no"
"skipdc" "no"
"reltol" 0.00100000
"abstol(V)" 1.00000e-06
"abstol(I)" 1.00000e-12
"temp" 25.0000
"tnom" 27.0000
"tempeffects" "all"
"errpreset" "moderate"
"method" "traponly"
"lteratio" 3.50000
"relref" "sigglobal"
"cmin" 0.00000
"gmin" 1.00000e-12
TYPE
"sweep" FLOAT DOUBLE PROP(
"key" "sweep"
)
"Tau" FLOAT DOUBLE PROP(
"units" "N*m"
"key" "node"
"tolerance" 1.00000e-06
)
"Alpha" FLOAT DOUBLE PROP(
"units" "rads/s^2"
"key" "node"
"tolerance" 1.00000e-06
)
"Omega" FLOAT DOUBLE PROP(
"units" "rads/s"
"key" "node"
"tolerance" 1.00000e-06
)
"Theta" FLOAT DOUBLE PROP(
"units" "rads"
"key" "node"
"tolerance" 1.00000e-06
)
"F" FLOAT DOUBLE PROP(
"units" "N"
"key" "node"
"tolerance" 1.00000e-06
)
"Imp" FLOAT DOUBLE PROP(
"units" "m/s^3"
"key" "node"
"tolerance" 1.00000e-06
)
"Acc" FLOAT DOUBLE PROP(
"units" "m/s^2"
"key" "node"
"tolerance" 1.00000e-06
)
"Vel" FLOAT DOUBLE PROP(
"units" "m/s"
"key" "node"
"tolerance" 1.00000e-06
)
"Pos" FLOAT DOUBLE PROP(
"units" "m"
"key" "node"
"tolerance" 1.00000e-06
)
"Phi" FLOAT DOUBLE PROP(
"units" "Wb"
"key" "node"
"tolerance" 1.00000e-09
)
"Q" FLOAT DOUBLE PROP(
"units" "coul"
"key" "node"
"tolerance" 1.00000e-14
)
"V" FLOAT DOUBLE PROP(
"units" "V"
"key" "node"
"tolerance" 1.00000e-06
)
"I" FLOAT DOUBLE PROP(
"units" "A"
"key" "branch"
"tolerance" 1.00000e-12
)
"MMF" FLOAT DOUBLE PROP(
"units" "A*turn"
"key" "node"
"tolerance" 1.00000e-12
)
"Wb" FLOAT DOUBLE PROP(
"units" "Wb"
"key" "node"
"tolerance" 1.00000e-09
)
"Temp" FLOAT DOUBLE PROP(
"units" "C"
"key" "node"
"tolerance" 0.000100000
)
"Pwr" FLOAT DOUBLE PROP(
"units" "W"
"key" "node"
"tolerance" 1.00000e-09
)
"U" FLOAT DOUBLE PROP(
"units" ""
"key" "node"
"tolerance" 1.00000e-06
)
"V/Sec" FLOAT DOUBLE PROP(
"units" "V/s"
"key" "node"
"tolerance" 0.000100000
)
"I/Sec" FLOAT DOUBLE PROP(
"units" "A/s"
"key" "node"
"tolerance" 1.00000e-06
)
"1/Sec" FLOAT DOUBLE PROP(
"units" "1/s"
"key" "node"
"tolerance" 0.000100000
)
"HOD" FLOAT DOUBLE PROP(
"units" ""
"key" "node"
"tolerance" 0.0100000
)
"A" FLOAT DOUBLE PROP(
"key" "inst"
)
"W" FLOAT DOUBLE PROP(
"key" "inst"
)
SWEEP
"time" "sweep" PROP(
"sweep_direction" 0
"units" "s"
"plot" 0
"grid" 1
)
TRACE
"Vn_D1:v" "V" PROP(
"units" "V"
)
"Vn_D1:i" "A" PROP(
"units" "A"
)
"Vn_D1:pwr" "W" PROP(
"units" "W"
)
"Vn_GND:v" "V" PROP(
"units" "V"
)
"Vn_GND:i" "A" PROP(
"units" "A"
)
"Vn_GND:pwr" "W" PROP(
"units" "W"
)
"Vn_SD:v" "V" PROP(
"units" "V"
)
"Vn_SD:i" "A" PROP(
"units" "A"
)
"Vn_SD:pwr" "W" PROP(
"units" "W"
)
"Vn_VDD:v" "V" PROP(
"units" "V"
)
"Vn_VDD:i" "A" PROP(
"units" "A"
)
"Vn_VDD:pwr" "W" PROP(
"units" "W"
)
"Vn_Z:v" "V" PROP(
"units" "V"
)
"Vn_Z:i" "A" PROP(
"units" "A"
)
"Vn_Z:pwr" "W" PROP(
"units" "W"
)
"n_Z" "V"
"n_D1" "V"
"n_SD" "V"
"Vn_D1:n" "I"
"Vn_D1:p" "I"
"Vn_GND:n" "I"
"Vn_GND:p" "I"
"Vn_SD:n" "I"
"Vn_SD:p" "I"
"Vn_VDD:n" "I"
"Vn_VDD:p" "I"
"Vn_Z:n" "I"
"Vn_Z:p" "I"
VALUE
"time" 0.000000000000000e+00
"Vn_D1:v" 0.000000000000000e+00
"Vn_D1:i" 7.517119452868243e-14
"Vn_D1:pwr" 0.000000000000000e+00
"Vn_GND:v" 0.000000000000000e+00
"Vn_GND:i" 2.548493107915383e-10
"Vn_GND:pwr" 0.000000000000000e+00
"Vn_SD:v" 0.000000000000000e+00
"Vn_SD:i" -5.105704018311280e-13
"Vn_SD:pwr" -0.000000000000000e+00
"Vn_VDD:v" 1.200000000000000e+00
"Vn_VDD:i" -2.544688430805004e-10
"Vn_VDD:pwr" -3.053626116966005e-10
"Vn_Z:v" 0.000000000000000e+00
"Vn_Z:i" 0.000000000000000e+00
"Vn_Z:pwr" 0.000000000000000e+00
"n_Z" 1.199999494927445e+00
"n_D1" 0.000000000000000e+00
"n_SD" 1.200000000000000e+00
"Vn_D1:n" -7.517119452868243e-14
"Vn_D1:p" 7.517119452868243e-14
"Vn_GND:n" -2.548493107915383e-10
"Vn_GND:p" 2.548493107915383e-10
"Vn_SD:n" 5.105704018311280e-13
"Vn_SD:p" -5.105704018311280e-13
"Vn_VDD:n" 2.544688430805004e-10
"Vn_VDD:p" -2.544688430805004e-10
"Vn_Z:n" 0.000000000000000e+00
"Vn_Z:p" 0.000000000000000e+00
"time" 3.900000000000000e-11
"Vn_D1:v" 0.000000000000000e+00
"Vn_D1:i" 7.484781124369313e-14
"Vn_D1:pwr" 0.000000000000000e+00
"Vn_GND:v" 0.000000000000000e+00
"Vn_GND:i" 2.548642668311064e-10
"Vn_GND:pwr" 0.000000000000000e+00
"Vn_SD:v" 0.000000000000000e+00
"Vn_SD:i" -5.109809290020012e-13
"Vn_SD:pwr" -0.000000000000000e+00
"Vn_VDD:v" 1.200000000000000e+00
"Vn_VDD:i" -2.544789732393899e-10
"Vn_VDD:pwr" -3.053747678872679e-10
"Vn_Z:v" 0.000000000000000e+00
"Vn_Z:i" -4.091969618936892e-15
"Vn_Z:pwr" -0.000000000000000e+00
"n_Z" 1.199999494888521e+00
"n_D1" 0.000000000000000e+00
"n_SD" 1.200000000000000e+00
"Vn_D1:n" -7.484781124369313e-14
"Vn_D1:p" 7.484781124369313e-14
"Vn_GND:n" -2.548642668311064e-10
"Vn_GND:p" 2.548642668311064e-10
"Vn_SD:n" 5.109809290020012e-13
"Vn_SD:p" -5.109809290020012e-13
"Vn_VDD:n" 2.544789732393899e-10
"Vn_VDD:p" -2.544789732393899e-10
"Vn_Z:n" 4.091969618936892e-15
"Vn_Z:p" -4.091969618936892e-15
"time" 1.170000000000000e-10
"Vn_D1:v" 0.000000000000000e+00
"Vn_D1:i" 7.504878290380724e-14
"Vn_D1:pwr" 0.000000000000000e+00
"Vn_GND:v" 0.000000000000000e+00
"Vn_GND:i" 2.548656989190604e-10
"Vn_GND:pwr" 0.000000000000000e+00
"Vn_SD:v" 0.000000000000000e+00
"Vn_SD:i" -5.107083257284167e-13
"Vn_SD:pwr" -0.000000000000000e+00
"Vn_VDD:v" 1.200000000000000e+00
"Vn_VDD:i" -2.544837169795475e-10
"Vn_VDD:pwr" -3.053804603754570e-10
"Vn_Z:v" 0.000000000000000e+00
"Vn_Z:i" -1.253892921773289e-15
"Vn_Z:pwr" -0.000000000000000e+00
"n_Z" 1.199999494864667e+00
"n_D1" 0.000000000000000e+00
"n_SD" 1.200000000000000e+00
"Vn_D1:n" -7.504878290380724e-14
"Vn_D1:p" 7.504878290380724e-14
"Vn_GND:n" -2.548656989190604e-10
"Vn_GND:p" 2.548656989190604e-10
"Vn_SD:n" 5.107083257284167e-13
"Vn_SD:p" -5.107083257284167e-13
"Vn_VDD:n" 2.544837169795475e-10
"Vn_VDD:p" -2.544837169795475e-10
"Vn_Z:n" 1.253892921773289e-15
"Vn_Z:p" -1.253892921773289e-15
"time" 2.730000000000000e-10
"Vn_D1:v" 0.000000000000000e+00
"Vn_D1:i" 7.521588189809992e-14
"Vn_D1:pwr" 0.000000000000000e+00
"Vn_GND:v" 0.000000000000000e+00
"Vn_GND:i" 2.548665458230546e-10
"Vn_GND:pwr" 0.000000000000000e+00
"Vn_SD:v" 0.000000000000000e+00
"Vn_SD:i" -5.105194062657036e-13
"Vn_SD:pwr" -0.000000000000000e+00
"Vn_VDD:v" 1.200000000000000e+00
"Vn_VDD:i" -2.544866480913855e-10
"Vn_VDD:pwr" -3.053839777096625e-10
"Vn_Z:v" 0.000000000000000e+00
"Vn_Z:i" 4.747994672629862e-16
"Vn_Z:pwr" 0.000000000000000e+00
"n_Z" 1.199999494849845e+00
"n_D1" 0.000000000000000e+00
"n_SD" 1.200000000000000e+00
"Vn_D1:n" -7.521588189809992e-14
"Vn_D1:p" 7.521588189809992e-14
"Vn_GND:n" -2.548665458230546e-10
"Vn_GND:p" 2.548665458230546e-10
"Vn_SD:n" 5.105194062657036e-13
"Vn_SD:p" -5.105194062657036e-13
"Vn_VDD:n" 2.544866480913855e-10
"Vn_VDD:p" -2.544866480913855e-10
"Vn_Z:n" -4.747994672629862e-16
"Vn_Z:p" 4.747994672629862e-16
"time" 5.850000000000002e-10
"Vn_D1:v" 0.000000000000000e+00
"Vn_D1:i" 7.514396327353724e-14
"Vn_D1:pwr" 0.000000000000000e+00
"Vn_GND:v" 0.000000000000000e+00
"Vn_GND:i" 2.548661443730441e-10
"Vn_GND:pwr" 0.000000000000000e+00
"Vn_SD:v" 0.000000000000000e+00
"Vn_SD:i" -5.106018990748428e-13
"Vn_SD:pwr" -0.000000000000000e+00
"Vn_VDD:v" 1.200000000000000e+00
"Vn_VDD:i" -2.544853226960184e-10
"Vn_VDD:pwr" -3.053823872352221e-10
"Vn_Z:v" 0.000000000000000e+00
"Vn_Z:i" -2.982579691419739e-16
"Vn_Z:pwr" -0.000000000000000e+00
"n_Z" 1.199999494856562e+00
"n_D1" 0.000000000000000e+00
"n_SD" 1.200000000000000e+00
"Vn_D1:n" -7.514396327353724e-14
"Vn_D1:p" 7.514396327353724e-14
"Vn_GND:n" -2.548661443730441e-10
"Vn_GND:p" 2.548661443730441e-10
"Vn_SD:n" 5.106018990748428e-13
"Vn_SD:p" -5.106018990748428e-13
"Vn_VDD:n" 2.544853226960184e-10
"Vn_VDD:p" -2.544853226960184e-10
"Vn_Z:n" 2.982579691419739e-16
"Vn_Z:p" -2.982579691419739e-16
"time" 1.209000000000000e-09
"Vn_D1:v" 0.000000000000000e+00
"Vn_D1:i" 7.519252355913950e-14
"Vn_D1:pwr" 0.000000000000000e+00
"Vn_GND:v" 0.000000000000000e+00
"Vn_GND:i" 2.548663743513960e-10
"Vn_GND:pwr" 0.000000000000000e+00
"Vn_SD:v" 0.000000000000000e+00
"Vn_SD:i" -5.105454773972693e-13
"Vn_SD:pwr" -0.000000000000000e+00
"Vn_VDD:v" 1.200000000000000e+00
"Vn_VDD:i" -2.544861891540747e-10
"Vn_VDD:pwr" -3.053834269848896e-10
"Vn_Z:v" 0.000000000000000e+00
"Vn_Z:i" 2.397503567453444e-16
"Vn_Z:pwr" 0.000000000000000e+00
"n_Z" 1.199999494852110e+00
"n_D1" 0.000000000000000e+00
"n_SD" 1.200000000000000e+00
"Vn_D1:n" -7.519252355913950e-14
"Vn_D1:p" 7.519252355913950e-14
"Vn_GND:n" -2.548663743513960e-10
"Vn_GND:p" 2.548663743513960e-10
"Vn_SD:n" 5.105454773972693e-13
"Vn_SD:p" -5.105454773972693e-13
"Vn_VDD:n" 2.544861891540747e-10
"Vn_VDD:p" -2.544861891540747e-10
"Vn_Z:n" -2.397503567453444e-16
"Vn_Z:p" 2.397503567453444e-16
"time" 1.989000000000000e-09
"Vn_D1:v" 0.000000000000000e+00
"Vn_D1:i" 7.515396305165138e-14
"Vn_D1:pwr" 0.000000000000000e+00
"Vn_GND:v" 0.000000000000000e+00
"Vn_GND:i" 2.548661119440226e-10
"Vn_GND:pwr" 0.000000000000000e+00
"Vn_SD:v" 0.000000000000000e+00
"Vn_SD:i" -5.105907369605988e-13
"Vn_SD:pwr" -0.000000000000000e+00
"Vn_VDD:v" 1.200000000000000e+00
"Vn_VDD:i" -2.544854101231369e-10
"Vn_VDD:pwr" -3.053824921477643e-10
"Vn_Z:v" 0.000000000000000e+00
"Vn_Z:i" -1.982708059292788e-16
"Vn_Z:pwr" -0.000000000000000e+00
"n_Z" 1.199999494856055e+00
"n_D1" 0.000000000000000e+00
"n_SD" 1.200000000000000e+00
"Vn_D1:n" -7.515396305165138e-14
"Vn_D1:p" 7.515396305165138e-14
"Vn_GND:n" -2.548661119440226e-10
"Vn_GND:p" 2.548661119440226e-10
"Vn_SD:n" 5.105907369605988e-13
"Vn_SD:p" -5.105907369605988e-13
"Vn_VDD:n" 2.544854101231369e-10
"Vn_VDD:p" -2.544854101231369e-10
"Vn_Z:n" 1.982708059292788e-16
"Vn_Z:p" -1.982708059292788e-16
"time" 2.769000000000001e-09
"Vn_D1:v" 0.000000000000000e+00
"Vn_D1:i" 7.518528824065672e-14
"Vn_D1:pwr" 0.000000000000000e+00
"Vn_GND:v" 0.000000000000000e+00
"Vn_GND:i" 2.548662465817641e-10
"Vn_GND:pwr" 0.000000000000000e+00
"Vn_SD:v" 0.000000000000000e+00
"Vn_SD:i" -5.105535683738145e-13
"Vn_SD:pwr" -0.000000000000000e+00
"Vn_VDD:v" 1.200000000000000e+00
"Vn_VDD:i" -2.544859750167361e-10
"Vn_VDD:pwr" -3.053831700200833e-10
"Vn_Z:v" 0.000000000000000e+00
"Vn_Z:i" 1.673863584858742e-16
"Vn_Z:pwr" 0.000000000000000e+00
"n_Z" 1.199999494853118e+00
"n_D1" 0.000000000000000e+00
"n_SD" 1.200000000000000e+00
"Vn_D1:n" -7.518528824065672e-14
"Vn_D1:p" 7.518528824065672e-14
"Vn_GND:n" -2.548662465817641e-10
"Vn_GND:p" 2.548662465817641e-10
"Vn_SD:n" 5.105535683738145e-13
"Vn_SD:p" -5.105535683738145e-13
"Vn_VDD:n" 2.544859750167361e-10
"Vn_VDD:p" -2.544859750167361e-10
"Vn_Z:n" -1.673863584858742e-16
"Vn_Z:p" 1.673863584858742e-16
"time" 3.000000000000000e-09
"Vn_D1:v" 0.000000000000000e+00
"Vn_D1:i" 7.516490948123008e-14
"Vn_D1:pwr" 0.000000000000000e+00
"Vn_GND:v" 0.000000000000000e+00
"Vn_GND:i" 2.548661081728699e-10
"Vn_GND:pwr" 0.000000000000000e+00
"Vn_SD:v" 0.000000000000000e+00
"Vn_SD:i" -5.105784547095377e-13
"Vn_SD:pwr" -0.000000000000000e+00
"Vn_VDD:v" 1.200000000000000e+00
"Vn_VDD:i" -2.544855367168576e-10
"Vn_VDD:pwr" -3.053826440602291e-10
"Vn_Z:v" 0.000000000000000e+00
"Vn_Z:i" -8.738805562587843e-17
"Vn_Z:pwr" -0.000000000000000e+00
"n_Z" 1.199999494855371e+00
"n_D1" 0.000000000000000e+00
"n_SD" 1.200000000000000e+00
"Vn_D1:n" -7.516490948123008e-14
"Vn_D1:p" 7.516490948123008e-14
"Vn_GND:n" -2.548661081728699e-10
"Vn_GND:p" 2.548661081728699e-10
"Vn_SD:n" 5.105784547095377e-13
"Vn_SD:p" -5.105784547095377e-13
"Vn_VDD:n" 2.544855367168576e-10
"Vn_VDD:p" -2.544855367168576e-10
"Vn_Z:n" 8.738805562587843e-17
"Vn_Z:p" -8.738805562587843e-17
"time" 3.010000000000000e-09
"Vn_D1:v" 0.000000000000000e+00
"Vn_D1:i" 7.516508410575646e-14
"Vn_D1:pwr" 0.000000000000000e+00
"Vn_GND:v" 0.000000000000000e+00
"Vn_GND:i" 2.548661168056281e-10
"Vn_GND:pwr" 0.000000000000000e+00
"Vn_SD:v" 0.000000000000000e+00
"Vn_SD:i" -5.105775397067227e-13
"Vn_SD:pwr" -0.000000000000000e+00
"Vn_VDD:v" 1.200000000000000e+00
"Vn_VDD:i" -2.544855670340858e-10
"Vn_VDD:pwr" -3.053826804409029e-10
"Vn_Z:v" 0.000000000000000e+00
"Vn_Z:i" -6.881837331901705e-17
"Vn_Z:pwr" -0.000000000000000e+00
"n_Z" 1.199999494855204e+00
"n_D1" 0.000000000000000e+00
"n_SD" 1.200000000000000e+00
"Vn_D1:n" -7.516508410575646e-14
"Vn_D1:p" 7.516508410575646e-14
"Vn_GND:n" -2.548661168056281e-10
"Vn_GND:p" 2.548661168056281e-10
"Vn_SD:n" 5.105775397067227e-13
"Vn_SD:p" -5.105775397067227e-13
"Vn_VDD:n" 2.544855670340858e-10
"Vn_VDD:p" -2.544855670340858e-10
"Vn_Z:n" 6.881837331901705e-17
"Vn_Z:p" -6.881837331901705e-17
"time" 3.030000000000000e-09
"Vn_D1:v" 0.000000000000000e+00
"Vn_D1:i" 7.516698478307194e-14
"Vn_D1:pwr" 0.000000000000000e+00
"Vn_GND:v" 0.000000000000000e+00
"Vn_GND:i" 2.548661278312710e-10
"Vn_GND:pwr" 0.000000000000000e+00
"Vn_SD:v" 0.000000000000000e+00
"Vn_SD:i" -5.105751149840111e-13
"Vn_SD:pwr" -0.000000000000000e+00
"Vn_VDD:v" 1.200000000000000e+00
"Vn_VDD:i" -2.544856080707228e-10
"Vn_VDD:pwr" -3.053827296848674e-10
"Vn_Z:v" 0.000000000000000e+00
"Vn_Z:i" -4.317265749664074e-17
"Vn_Z:pwr" -0.000000000000000e+00
"n_Z" 1.199999494854993e+00
"n_D1" 0.000000000000000e+00
"n_SD" 1.200000000000000e+00
"Vn_D1:n" -7.516698478307194e-14
"Vn_D1:p" 7.516698478307194e-14
"Vn_GND:n" -2.548661278312710e-10
"Vn_GND:p" 2.548661278312710e-10
"Vn_SD:n" 5.105751149840111e-13
"Vn_SD:p" -5.105751149840111e-13
"Vn_VDD:n" 2.544856080707228e-10
"Vn_VDD:p" -2.544856080707228e-10
"Vn_Z:n" 4.317265749664074e-17
"Vn_Z:p" -4.317265749664074e-17
"time" 3.070000000000001e-09
"Vn_D1:v" 0.000000000000000e+00
"Vn_D1:i" 7.517009687114248e-14
"Vn_D1:pwr" 0.000000000000000e+00
"Vn_GND:v" 0.000000000000000e+00
"Vn_GND:i" 2.548661415177301e-10
"Vn_GND:pwr" 0.000000000000000e+00
"Vn_SD:v" 0.000000000000000e+00
"Vn_SD:i" -5.105715893350684e-13
"Vn_SD:pwr" -0.000000000000000e+00
"Vn_VDD:v" 1.200000000000000e+00
"Vn_VDD:i" -2.544856570076415e-10
"Vn_VDD:pwr" -3.053827884091698e-10
"Vn_Z:v" 0.000000000000000e+00
"Vn_Z:i" -1.038318229089923e-17
"Vn_Z:pwr" -0.000000000000000e+00
"n_Z" 1.199999494854732e+00
"n_D1" 0.000000000000000e+00
"n_SD" 1.200000000000000e+00
"Vn_D1:n" -7.517009687114248e-14
"Vn_D1:p" 7.517009687114248e-14
"Vn_GND:n" -2.548661415177301e-10
"Vn_GND:p" 2.548661415177301e-10
"Vn_SD:n" 5.105715893350684e-13
"Vn_SD:p" -5.105715893350684e-13
"Vn_VDD:n" 2.544856570076415e-10
"Vn_VDD:p" -2.544856570076415e-10
"Vn_Z:n" 1.038318229089923e-17
"Vn_Z:p" -1.038318229089923e-17
"time" 3.150000000000003e-09
"Vn_D1:v" 0.000000000000000e+00
"Vn_D1:i" 7.517124963991069e-14
"Vn_D1:pwr" 0.000000000000000e+00
"Vn_GND:v" 0.000000000000000e+00
"Vn_GND:i" 2.548661425238491e-10
"Vn_GND:pwr" 0.000000000000000e+00
"Vn_SD:v" 0.000000000000000e+00
"Vn_SD:i" -5.105703605874682e-13
"Vn_SD:pwr" -0.000000000000000e+00
"Vn_VDD:v" 1.200000000000000e+00
"Vn_VDD:i" -2.544856819374561e-10
"Vn_VDD:pwr" -3.053828183249473e-10
"Vn_Z:v" 0.000000000000000e+00
"Vn_Z:i" 5.704128495292561e-19
"Vn_Z:pwr" 0.000000000000000e+00
"n_Z" 1.199999494854636e+00
"n_D1" 0.000000000000000e+00
"n_SD" 1.200000000000000e+00
"Vn_D1:n" -7.517124963991069e-14
"Vn_D1:p" 7.517124963991069e-14
"Vn_GND:n" -2.548661425238491e-10
"Vn_GND:p" 2.548661425238491e-10
"Vn_SD:n" 5.105703605874682e-13
"Vn_SD:p" -5.105703605874682e-13
"Vn_VDD:n" 2.544856819374561e-10
"Vn_VDD:p" -2.544856819374561e-10
"Vn_Z:n" -5.704128495292561e-19
"Vn_Z:p" 5.704128495292561e-19
"time" 3.310000000000005e-09
"Vn_D1:v" 0.000000000000000e+00
"Vn_D1:i" 7.517124671667505e-14
"Vn_D1:pwr" 0.000000000000000e+00
"Vn_GND:v" 0.000000000000000e+00
"Vn_GND:i" 2.548661328320499e-10
"Vn_GND:pwr" 0.000000000000000e+00
"Vn_SD:v" 0.000000000000000e+00
"Vn_SD:i" -5.105702867446295e-13
"Vn_SD:pwr" -0.000000000000000e+00
"Vn_VDD:v" 1.200000000000000e+00
"Vn_VDD:i" -2.544856666613305e-10
"Vn_VDD:pwr" -3.053827999935966e-10
"Vn_Z:v" 0.000000000000000e+00
"Vn_Z:i" 1.426301450101280e-18
"Vn_Z:pwr" 0.000000000000000e+00
"n_Z" 1.199999494854675e+00
"n_D1" 0.000000000000000e+00
"n_SD" 1.200000000000000e+00
"Vn_D1:n" -7.517124671667505e-14
"Vn_D1:p" 7.517124671667505e-14
"Vn_GND:n" -2.548661328320499e-10
"Vn_GND:p" 2.548661328320499e-10
"Vn_SD:n" 5.105702867446295e-13
"Vn_SD:p" -5.105702867446295e-13
"Vn_VDD:n" 2.544856666613305e-10
"Vn_VDD:p" -2.544856666613305e-10
"Vn_Z:n" -1.426301450101280e-18
"Vn_Z:p" 1.426301450101280e-18
"time" 3.630000000000011e-09
"Vn_D1:v" 0.000000000000000e+00
"Vn_D1:i" 7.517136085216032e-14
"Vn_D1:pwr" 0.000000000000000e+00
"Vn_GND:v" 0.000000000000000e+00
"Vn_GND:i" 2.548661151983982e-10
"Vn_GND:pwr" 0.000000000000000e+00
"Vn_SD:v" 0.000000000000000e+00
"Vn_SD:i" -5.105702638068013e-13
"Vn_SD:pwr" -0.000000000000000e+00
"Vn_VDD:v" 1.200000000000000e+00
"Vn_VDD:i" -2.544856486342774e-10
"Vn_VDD:pwr" -3.053827783611329e-10
"Vn_Z:v" 0.000000000000000e+00
"Vn_Z:i" 8.437261217441462e-19
"Vn_Z:pwr" 0.000000000000000e+00
"n_Z" 1.199999494854763e+00
"n_D1" 0.000000000000000e+00
"n_SD" 1.200000000000000e+00
"Vn_D1:n" -7.517136085216032e-14
"Vn_D1:p" 7.517136085216032e-14
"Vn_GND:n" -2.548661151983982e-10
"Vn_GND:p" 2.548661151983982e-10
"Vn_SD:n" 5.105702638068013e-13
"Vn_SD:p" -5.105702638068013e-13
"Vn_VDD:n" 2.544856486342774e-10
"Vn_VDD:p" -2.544856486342774e-10
"Vn_Z:n" -8.437261217441462e-19
"Vn_Z:p" 8.437261217441462e-19
"time" 4.270000000000022e-09
"Vn_D1:v" 0.000000000000000e+00
"Vn_D1:i" 7.517114352609872e-14
"Vn_D1:pwr" 0.000000000000000e+00
"Vn_GND:v" 0.000000000000000e+00
"Vn_GND:i" 2.548660763714630e-10
"Vn_GND:pwr" 0.000000000000000e+00
"Vn_SD:v" 0.000000000000000e+00
"Vn_SD:i" -5.105703955919396e-13
"Vn_SD:pwr" -0.000000000000000e+00
"Vn_VDD:v" 1.200000000000000e+00
"Vn_VDD:i" -2.544856081749238e-10
"Vn_VDD:pwr" -3.053827298099086e-10
"Vn_Z:v" 0.000000000000000e+00
"Vn_Z:i" 1.341967302720852e-18
"Vn_Z:pwr" 0.000000000000000e+00
"n_Z" 1.199999494854934e+00
"n_D1" 0.000000000000000e+00
"n_SD" 1.200000000000000e+00
"Vn_D1:n" -7.517114352609872e-14
"Vn_D1:p" 7.517114352609872e-14
"Vn_GND:n" -2.548660763714630e-10
"Vn_GND:p" 2.548660763714630e-10
"Vn_SD:n" 5.105703955919396e-13
"Vn_SD:p" -5.105703955919396e-13
"Vn_VDD:n" 2.544856081749238e-10
"Vn_VDD:p" -2.544856081749238e-10
"Vn_Z:n" -1.341967302720852e-18
"Vn_Z:p" 1.341967302720852e-18
"time" 5.050000000000022e-09
"Vn_D1:v" 0.000000000000000e+00
"Vn_D1:i" 7.517152052959778e-14
"Vn_D1:pwr" 0.000000000000000e+00
"Vn_GND:v" 0.000000000000000e+00
"Vn_GND:i" 2.548660336653858e-10
"Vn_GND:pwr" 0.000000000000000e+00
"Vn_SD:v" 0.000000000000000e+00
"Vn_SD:i" -5.105700885201581e-13
"Vn_SD:pwr" -0.000000000000000e+00
"Vn_VDD:v" 1.200000000000000e+00
"Vn_VDD:i" -2.544855703839924e-10
"Vn_VDD:pwr" -3.053826844607909e-10
"Vn_Z:v" 0.000000000000000e+00
"Vn_Z:i" 5.472584965995053e-19
"Vn_Z:pwr" 0.000000000000000e+00
"n_Z" 1.199999494855113e+00
"n_D1" 0.000000000000000e+00
"n_SD" 1.200000000000000e+00
"Vn_D1:n" -7.517152052959778e-14
"Vn_D1:p" 7.517152052959778e-14
"Vn_GND:n" -2.548660336653858e-10
"Vn_GND:p" 2.548660336653858e-10
"Vn_SD:n" 5.105700885201581e-13
"Vn_SD:p" -5.105700885201581e-13
"Vn_VDD:n" 2.544855703839924e-10
"Vn_VDD:p" -2.544855703839924e-10
"Vn_Z:n" -5.472584965995053e-19
"Vn_Z:p" 5.472584965995053e-19
"time" 5.830000000000022e-09
"Vn_D1:v" 0.000000000000000e+00
"Vn_D1:i" 7.517098083111575e-14
"Vn_D1:pwr" 0.000000000000000e+00
"Vn_GND:v" 0.000000000000000e+00
"Vn_GND:i" 2.548659848779037e-10
"Vn_GND:pwr" 0.000000000000000e+00
"Vn_SD:v" 0.000000000000000e+00
"Vn_SD:i" -5.105705746192782e-13
"Vn_SD:pwr" -0.000000000000000e+00
"Vn_VDD:v" 1.200000000000000e+00
"Vn_VDD:i" -2.544855169372879e-10
"Vn_VDD:pwr" -3.053826203247454e-10
"Vn_Z:v" 0.000000000000000e+00
"Vn_Z:i" 1.573190823665093e-18
"Vn_Z:pwr" 0.000000000000000e+00
"n_Z" 1.199999494855315e+00
"n_D1" 0.000000000000000e+00
"n_SD" 1.200000000000000e+00
"Vn_D1:n" -7.517098083111575e-14
"Vn_D1:p" 7.517098083111575e-14
"Vn_GND:n" -2.548659848779037e-10
"Vn_GND:p" 2.548659848779037e-10
"Vn_SD:n" 5.105705746192782e-13
"Vn_SD:p" -5.105705746192782e-13
"Vn_VDD:n" 2.544855169372879e-10
"Vn_VDD:p" -2.544855169372879e-10
"Vn_Z:n" -1.573190823665093e-18
"Vn_Z:p" 1.573190823665093e-18
"time" 6.010000000000000e-09
"Vn_D1:v" 0.000000000000000e+00
"Vn_D1:i" 7.517171697914211e-14
"Vn_D1:pwr" 0.000000000000000e+00
"Vn_GND:v" 0.000000000000000e+00
"Vn_GND:i" 2.548659793138624e-10
"Vn_GND:pwr" 0.000000000000000e+00
"Vn_SD:v" 0.000000000000000e+00
"Vn_SD:i" -5.105698853917440e-13
"Vn_SD:pwr" -0.000000000000000e+00
"Vn_VDD:v" 1.200000000000000e+00
"Vn_VDD:i" -2.544855113745407e-10
"Vn_VDD:pwr" -3.053826136494489e-10
"Vn_Z:v" 0.000000000000000e+00
"Vn_Z:i" 7.286441147715665e-19
"Vn_Z:pwr" 0.000000000000000e+00
"n_Z" 1.199999494855365e+00
"n_D1" 0.000000000000000e+00
"n_SD" 1.200000000000000e+00
"Vn_D1:n" -7.517171697914211e-14
"Vn_D1:p" 7.517171697914211e-14
"Vn_GND:n" -2.548659793138624e-10
"Vn_GND:p" 2.548659793138624e-10
"Vn_SD:n" 5.105698853917440e-13
"Vn_SD:p" -5.105698853917440e-13
"Vn_VDD:n" 2.544855113745407e-10
"Vn_VDD:p" -2.544855113745407e-10
"Vn_Z:n" -7.286441147715665e-19
"Vn_Z:p" 7.286441147715665e-19
"time" 6.019999479700000e-09
"Vn_D1:v" 0.000000000000000e+00
"Vn_D1:i" 7.517122228441056e-14
"Vn_D1:pwr" 0.000000000000000e+00
"Vn_GND:v" 0.000000000000000e+00
"Vn_GND:i" 2.548659758455553e-10
"Vn_GND:pwr" 0.000000000000000e+00
"Vn_SD:v" 0.000000000000000e+00
"Vn_SD:i" -5.105702316069107e-13
"Vn_SD:pwr" -0.000000000000000e+00
"Vn_VDD:v" 1.200000000000000e+00
"Vn_VDD:i" -2.544855089347248e-10
"Vn_VDD:pwr" -3.053826107216698e-10
"Vn_Z:v" 0.000000000000000e+00
"Vn_Z:i" 6.251745886565417e-19
"Vn_Z:pwr" 0.000000000000000e+00
"n_Z" 1.199999494855367e+00
"n_D1" 0.000000000000000e+00
"n_SD" 1.200000000000000e+00
"Vn_D1:n" -7.517122228441056e-14
"Vn_D1:p" 7.517122228441056e-14
"Vn_GND:n" -2.548659758455553e-10
"Vn_GND:p" 2.548659758455553e-10
"Vn_SD:n" 5.105702316069107e-13
"Vn_SD:p" -5.105702316069107e-13
"Vn_VDD:n" 2.544855089347248e-10
"Vn_VDD:p" -2.544855089347248e-10
"Vn_Z:n" -6.251745886565417e-19
"Vn_Z:p" 6.251745886565417e-19
"time" 6.020000000000000e-09
"Vn_D1:v" 0.000000000000000e+00
"Vn_D1:i" -5.305157159168370e-07
"Vn_D1:pwr" -0.000000000000000e+00
"Vn_GND:v" 0.000000000000000e+00
"Vn_GND:i" 9.544344600410032e-08
"Vn_GND:pwr" 0.000000000000000e+00
"Vn_SD:v" 0.000000000000000e+00
"Vn_SD:i" 5.429793165506809e-11
"Vn_SD:pwr" 0.000000000000000e+00
"Vn_VDD:v" 1.200000000000000e+00
"Vn_VDD:i" 4.350173507683796e-07
"Vn_VDD:pwr" 5.220208209220556e-07
"Vn_Z:v" 0.000000000000000e+00
"Vn_Z:i" 5.651154568507586e-13
"Vn_Z:pwr" 0.000000000000000e+00
"n_Z" 1.199999494855439e+00
"n_D1" 2.456516759776461e-07
"n_SD" 1.200000000000000e+00
"Vn_D1:n" 5.305157159168370e-07
"Vn_D1:p" -5.305157159168370e-07
"Vn_GND:n" -9.544344600410032e-08
"Vn_GND:p" 9.544344600410032e-08
"Vn_SD:n" -5.429793165506809e-11
"Vn_SD:p" 5.429793165506809e-11
"Vn_VDD:n" -4.350173507683796e-07
"Vn_VDD:p" 4.350173507683796e-07
"Vn_Z:n" -5.651154568507586e-13
"Vn_Z:p" 5.651154568507586e-13
"time" 6.020001040600000e-09
"Vn_D1:v" 0.000000000000000e+00
"Vn_D1:i" -5.317631845579601e-07
"Vn_D1:pwr" -0.000000000000000e+00
"Vn_GND:v" 0.000000000000000e+00
"Vn_GND:i" 9.565916713994977e-08
"Vn_GND:pwr" 0.000000000000000e+00
"Vn_SD:v" 0.000000000000000e+00
"Vn_SD:i" 1.632129292246855e-10
"Vn_SD:pwr" 0.000000000000000e+00
"Vn_VDD:v" 1.200000000000000e+00
"Vn_VDD:i" 4.359368668951111e-07
"Vn_VDD:pwr" 5.231242402741333e-07
"Vn_Z:v" 0.000000000000000e+00
"Vn_Z:i" 3.882778986687453e-12
"Vn_Z:pwr" 0.000000000000000e+00
"n_Z" 1.199999494856424e+00
"n_D1" 7.369550279329381e-07
"n_SD" 1.200000000000000e+00
"Vn_D1:n" 5.317631845579601e-07
"Vn_D1:p" -5.317631845579601e-07
"Vn_GND:n" -9.565916713994977e-08
"Vn_GND:p" 9.565916713994977e-08
"Vn_SD:n" -1.632129292246855e-10
"Vn_SD:p" 1.632129292246855e-10
"Vn_VDD:n" -4.359368668951111e-07
"Vn_VDD:p" 4.359368668951111e-07
"Vn_Z:n" -3.882778986687453e-12
"Vn_Z:p" 3.882778986687453e-12
"time" 6.020003121800001e-09
"Vn_D1:v" 0.000000000000000e+00
"Vn_D1:i" -5.342398279052470e-07
"Vn_D1:pwr" -0.000000000000000e+00
"Vn_GND:v" 0.000000000000000e+00
"Vn_GND:i" 9.608766749794946e-08
"Vn_GND:pwr" 0.000000000000000e+00
"Vn_SD:v" 0.000000000000000e+00
"Vn_SD:i" 3.796454849554583e-10
"Vn_SD:pwr" 0.000000000000000e+00
"Vn_VDD:v" 1.200000000000000e+00
"Vn_VDD:i" 4.377577083261223e-07
"Vn_VDD:pwr" 5.253092499913467e-07
"Vn_Z:v" 0.000000000000000e+00
"Vn_Z:i" 1.475099567452355e-11
"Vn_Z:pwr" 0.000000000000000e+00
"n_Z" 1.199999494861153e+00
"n_D1" 1.719561731843522e-06
"n_SD" 1.200000000000000e+00
"Vn_D1:n" 5.342398279052470e-07
"Vn_D1:p" -5.342398279052470e-07
"Vn_GND:n" -9.608766749794946e-08
"Vn_GND:p" 9.608766749794946e-08
"Vn_SD:n" -3.796454849554583e-10
"Vn_SD:p" 3.796454849554583e-10
"Vn_VDD:n" -4.377577083261223e-07
"Vn_VDD:p" 4.377577083261223e-07
"Vn_Z:n" -1.475099567452355e-11
"Vn_Z:p" 1.475099567452355e-11
"time" 6.020007284200001e-09
"Vn_D1:v" 0.000000000000000e+00
"Vn_D1:i" -5.390851914014695e-07
"Vn_D1:pwr" -0.000000000000000e+00
"Vn_GND:v" 0.000000000000000e+00
"Vn_GND:i" 9.692726977531565e-08
"Vn_GND:pwr" 0.000000000000000e+00
"Vn_SD:v" 0.000000000000000e+00
"Vn_SD:i" 8.042132292892070e-10
"Vn_SD:pwr" 0.000000000000000e+00
"Vn_VDD:v" 1.200000000000000e+00
"Vn_VDD:i" 4.412933792295752e-07
"Vn_VDD:pwr" 5.295520550754902e-07
"Vn_Z:v" 0.000000000000000e+00
"Vn_Z:i" 6.027459509653435e-11
"Vn_Z:pwr" 0.000000000000000e+00
"n_Z" 1.199999494899237e+00
"n_D1" 3.684775139664691e-06
"n_SD" 1.200000000000000e+00
"Vn_D1:n" 5.390851914014695e-07
"Vn_D1:p" -5.390851914014695e-07
"Vn_GND:n" -9.692726977531565e-08
"Vn_GND:p" 9.692726977531565e-08
"Vn_SD:n" -8.042132292892070e-10
"Vn_SD:p" 8.042132292892070e-10
"Vn_VDD:n" -4.412933792295752e-07
"Vn_VDD:p" 4.412933792295752e-07
"Vn_Z:n" -6.027459509653435e-11
"Vn_Z:p" 6.027459509653435e-11
"time" 6.020015609000002e-09
"Vn_D1:v" 0.000000000000000e+00
"Vn_D1:i" -5.483629522426966e-07
"Vn_D1:pwr" -0.000000000000000e+00
"Vn_GND:v" 0.000000000000000e+00
"Vn_GND:i" 9.853895453859107e-08
"Vn_GND:pwr" 0.000000000000000e+00
"Vn_SD:v" 0.000000000000000e+00
"Vn_SD:i" 1.621080686801742e-09
"Vn_SD:pwr" 0.000000000000000e+00
"Vn_VDD:v" 1.200000000000000e+00
"Vn_VDD:i" 4.479708169316743e-07
"Vn_VDD:pwr" 5.375649803180092e-07
"Vn_Z:v" 0.000000000000000e+00
"Vn_Z:i" 2.320450169940440e-10
"Vn_Z:pwr" 0.000000000000000e+00
"n_Z" 1.199999495196006e+00
"n_D1" 7.615201955307027e-06
"n_SD" 1.200000000000000e+00
"Vn_D1:n" 5.483629522426966e-07
"Vn_D1:p" -5.483629522426966e-07
"Vn_GND:n" -9.853895453859107e-08
"Vn_GND:p" 9.853895453859107e-08
"Vn_SD:n" -1.621080686801742e-09
"Vn_SD:p" 1.621080686801742e-09
"Vn_VDD:n" -4.479708169316743e-07
"Vn_VDD:p" 4.479708169316743e-07
"Vn_Z:n" -2.320450169940440e-10
"Vn_Z:p" 2.320450169940440e-10
"time" 6.020032258600003e-09
"Vn_D1:v" 0.000000000000000e+00
"Vn_D1:i" -5.654016956982518e-07
"Vn_D1:pwr" -0.000000000000000e+00
"Vn_GND:v" 0.000000000000000e+00
"Vn_GND:i" 1.015084373449184e-07
"Vn_GND:pwr" 0.000000000000000e+00
"Vn_SD:v" 0.000000000000000e+00
"Vn_SD:i" 3.133010501496875e-09
"Vn_SD:pwr" 0.000000000000000e+00
"Vn_VDD:v" 1.200000000000000e+00
"Vn_VDD:i" 4.599523856558395e-07
"Vn_VDD:pwr" 5.519428627870073e-07
"Vn_Z:v" 0.000000000000000e+00
"Vn_Z:i" 8.078074117341199e-10
"Vn_Z:pwr" 0.000000000000000e+00
"n_Z" 1.199999497307362e+00
"n_D1" 1.547605558659170e-05
"n_SD" 1.200000000000000e+00
"Vn_D1:n" 5.654016956982518e-07
"Vn_D1:p" -5.654016956982518e-07
"Vn_GND:n" -1.015084373449184e-07
"Vn_GND:p" 1.015084373449184e-07
"Vn_SD:n" -3.133010501496875e-09
"Vn_SD:p" 3.133010501496875e-09
"Vn_VDD:n" -4.599523856558395e-07
"Vn_VDD:p" 4.599523856558395e-07
"Vn_Z:n" -8.078074117341199e-10
"Vn_Z:p" 8.078074117341199e-10
"time" 6.020065557800006e-09
"Vn_D1:v" 0.000000000000000e+00
"Vn_D1:i" -5.817058951978770e-07
"Vn_D1:pwr" -0.000000000000000e+00
"Vn_GND:v" 0.000000000000000e+00
"Vn_GND:i" 1.066138049034475e-07
"Vn_GND:pwr" 0.000000000000000e+00
"Vn_SD:v" 0.000000000000000e+00
"Vn_SD:i" 5.735196435335384e-09
"Vn_SD:pwr" 0.000000000000000e+00
"Vn_VDD:v" 1.200000000000000e+00
"Vn_VDD:i" 4.669075029537526e-07
"Vn_VDD:pwr" 5.602890035445031e-07
"Vn_Z:v" 0.000000000000000e+00
"Vn_Z:i" 2.449335716342981e-09
"Vn_Z:pwr" 0.000000000000000e+00
"n_Z" 1.199999510534224e+00
"n_D1" 3.119776284916105e-05
"n_SD" 1.200000000000000e+00
"Vn_D1:n" 5.817058951978770e-07
"Vn_D1:p" -5.817058951978770e-07
"Vn_GND:n" -1.066138049034475e-07
"Vn_GND:p" 1.066138049034475e-07
"Vn_SD:n" -5.735196435335384e-09
"Vn_SD:p" 5.735196435335384e-09
"Vn_VDD:n" -4.669075029537526e-07
"Vn_VDD:p" 4.669075029537526e-07
"Vn_Z:n" -2.449335716342981e-09
"Vn_Z:p" 2.449335716342981e-09
"time" 6.020132156200012e-09
"Vn_D1:v" 0.000000000000000e+00
"Vn_D1:i" -6.292974925806867e-07
"Vn_D1:pwr" -0.000000000000000e+00
"Vn_GND:v" 0.000000000000000e+00
"Vn_GND:i" 1.141484610321259e-07
"Vn_GND:pwr" 0.000000000000000e+00
"Vn_SD:v" 0.000000000000000e+00
"Vn_SD:i" 9.643255899584255e-09
"Vn_SD:pwr" 0.000000000000000e+00
"Vn_VDD:v" 1.200000000000000e+00
"Vn_VDD:i" 4.993802954589185e-07
"Vn_VDD:pwr" 5.992563545507022e-07
"Vn_Z:v" 0.000000000000000e+00
"Vn_Z:i" 6.125425519623443e-09
"Vn_Z:pwr" 0.000000000000000e+00
"n_Z" 1.199999580176343e+00
"n_D1" 6.264117737429975e-05
"n_SD" 1.200000000000000e+00
"Vn_D1:n" 6.292974925806867e-07
"Vn_D1:p" -6.292974925806867e-07
"Vn_GND:n" -1.141484610321259e-07
"Vn_GND:p" 1.141484610321259e-07
"Vn_SD:n" -9.643255899584255e-09
"Vn_SD:p" 9.643255899584255e-09
"Vn_VDD:n" -4.993802954589185e-07
"Vn_VDD:p" 4.993802954589185e-07
"Vn_Z:n" -6.125425519623443e-09
"Vn_Z:p" 6.125425519623443e-09
"time" 6.020265353000023e-09
"Vn_D1:v" 0.000000000000000e+00
"Vn_D1:i" -6.664208845808549e-07
"Vn_D1:pwr" -0.000000000000000e+00
"Vn_GND:v" 0.000000000000000e+00
"Vn_GND:i" 1.227851401816169e-07
"Vn_GND:pwr" 0.000000000000000e+00
"Vn_SD:v" 0.000000000000000e+00
"Vn_SD:i" 1.418907838958732e-08
"Vn_SD:pwr" 0.000000000000000e+00