HEADER
"PSFversion" "1.00"
"simulator" "spectre"
"version" "10.1.1.164.isr11"
"date" "3:01:57 PM, Fri Oct 17, 2014"
"design" "* Spectre Timing Acquisition"
"analysis type" "tran"
"analysis name" "transient1-016_transient1"
"analysis description" "Transient Analysis `transient1-016_transient1': time = (0 s -> 39 ns)"
"xVecSorted" "ascending"
"tolerance.relative" 0.00100000
"start" 0.00000
"outputstart" 0.00000
"stop" 3.90000e-08
"step" 3.90000e-11
"maxstep" 7.80000e-10
"ic" "all"
"useprevic" "no"
"skipdc" "no"
"reltol" 0.00100000
"abstol(V)" 1.00000e-06
"abstol(I)" 1.00000e-12
"temp" 25.0000
"tnom" 27.0000
"tempeffects" "all"
"errpreset" "moderate"
"method" "traponly"
"lteratio" 3.50000
"relref" "sigglobal"
"cmin" 0.00000
"gmin" 1.00000e-12
TYPE
"sweep" FLOAT DOUBLE PROP(
"key" "sweep"
)
"Tau" FLOAT DOUBLE PROP(
"units" "N*m"
"key" "node"
"tolerance" 1.00000e-06
)
"Alpha" FLOAT DOUBLE PROP(
"units" "rads/s^2"
"key" "node"
"tolerance" 1.00000e-06
)
"Omega" FLOAT DOUBLE PROP(
"units" "rads/s"
"key" "node"
"tolerance" 1.00000e-06
)
"Theta" FLOAT DOUBLE PROP(
"units" "rads"
"key" "node"
"tolerance" 1.00000e-06
)
"F" FLOAT DOUBLE PROP(
"units" "N"
"key" "node"
"tolerance" 1.00000e-06
)
"Imp" FLOAT DOUBLE PROP(
"units" "m/s^3"
"key" "node"
"tolerance" 1.00000e-06
)
"Acc" FLOAT DOUBLE PROP(
"units" "m/s^2"
"key" "node"
"tolerance" 1.00000e-06
)
"Vel" FLOAT DOUBLE PROP(
"units" "m/s"
"key" "node"
"tolerance" 1.00000e-06
)
"Pos" FLOAT DOUBLE PROP(
"units" "m"
"key" "node"
"tolerance" 1.00000e-06
)
"Phi" FLOAT DOUBLE PROP(
"units" "Wb"
"key" "node"
"tolerance" 1.00000e-09
)
"Q" FLOAT DOUBLE PROP(
"units" "coul"
"key" "node"
"tolerance" 1.00000e-14
)
"V" FLOAT DOUBLE PROP(
"units" "V"
"key" "node"
"tolerance" 1.00000e-06
)
"I" FLOAT DOUBLE PROP(
"units" "A"
"key" "branch"
"tolerance" 1.00000e-12
)
"MMF" FLOAT DOUBLE PROP(
"units" "A*turn"
"key" "node"
"tolerance" 1.00000e-12
)
"Wb" FLOAT DOUBLE PROP(
"units" "Wb"
"key" "node"
"tolerance" 1.00000e-09
)
"Temp" FLOAT DOUBLE PROP(
"units" "C"
"key" "node"
"tolerance" 0.000100000
)
"Pwr" FLOAT DOUBLE PROP(
"units" "W"
"key" "node"
"tolerance" 1.00000e-09
)
"U" FLOAT DOUBLE PROP(
"units" ""
"key" "node"
"tolerance" 1.00000e-06
)
"V/Sec" FLOAT DOUBLE PROP(
"units" "V/s"
"key" "node"
"tolerance" 0.000100000
)
"I/Sec" FLOAT DOUBLE PROP(
"units" "A/s"
"key" "node"
"tolerance" 1.00000e-06
)
"1/Sec" FLOAT DOUBLE PROP(
"units" "1/s"
"key" "node"
"tolerance" 0.000100000
)
"HOD" FLOAT DOUBLE PROP(
"units" ""
"key" "node"
"tolerance" 0.0100000
)
"A" FLOAT DOUBLE PROP(
"key" "inst"
)
"W" FLOAT DOUBLE PROP(
"key" "inst"
)
SWEEP
"time" "sweep" PROP(
"sweep_direction" 0
"units" "s"
"plot" 0
"grid" 1
)
TRACE
"Vn_D1:v" "V" PROP(
"units" "V"
)
"Vn_D1:i" "A" PROP(
"units" "A"
)
"Vn_D1:pwr" "W" PROP(
"units" "W"
)
"Vn_GND:v" "V" PROP(
"units" "V"
)
"Vn_GND:i" "A" PROP(
"units" "A"
)
"Vn_GND:pwr" "W" PROP(
"units" "W"
)
"Vn_SD:v" "V" PROP(
"units" "V"
)
"Vn_SD:i" "A" PROP(
"units" "A"
)
"Vn_SD:pwr" "W" PROP(
"units" "W"
)
"Vn_VDD:v" "V" PROP(
"units" "V"
)
"Vn_VDD:i" "A" PROP(
"units" "A"
)
"Vn_VDD:pwr" "W" PROP(
"units" "W"
)
"Vn_Z:v" "V" PROP(
"units" "V"
)
"Vn_Z:i" "A" PROP(
"units" "A"
)
"Vn_Z:pwr" "W" PROP(
"units" "W"
)
"n_Z" "V"
"n_D1" "V"
"n_SD" "V"
"Vn_D1:n" "I"
"Vn_D1:p" "I"
"Vn_GND:n" "I"
"Vn_GND:p" "I"
"Vn_SD:n" "I"
"Vn_SD:p" "I"
"Vn_VDD:n" "I"
"Vn_VDD:p" "I"
"Vn_Z:n" "I"
"Vn_Z:p" "I"
VALUE
"time" 0.000000000000000e+00
"Vn_D1:v" 0.000000000000000e+00
"Vn_D1:i" 7.517119452868265e-14
"Vn_D1:pwr" 0.000000000000000e+00
"Vn_GND:v" 0.000000000000000e+00
"Vn_GND:i" 2.548493107913156e-10
"Vn_GND:pwr" 0.000000000000000e+00
"Vn_SD:v" 0.000000000000000e+00
"Vn_SD:i" -5.105704018311278e-13
"Vn_SD:pwr" -0.000000000000000e+00
"Vn_VDD:v" 1.200000000000000e+00
"Vn_VDD:i" -2.544688430803593e-10
"Vn_VDD:pwr" -3.053626116964312e-10
"Vn_Z:v" 0.000000000000000e+00
"Vn_Z:i" 0.000000000000000e+00
"Vn_Z:pwr" 0.000000000000000e+00
"n_Z" 1.199999494927445e+00
"n_D1" 0.000000000000000e+00
"n_SD" 1.200000000000000e+00
"Vn_D1:n" -7.517119452868265e-14
"Vn_D1:p" 7.517119452868265e-14
"Vn_GND:n" -2.548493107913156e-10
"Vn_GND:p" 2.548493107913156e-10
"Vn_SD:n" 5.105704018311278e-13
"Vn_SD:p" -5.105704018311278e-13
"Vn_VDD:n" 2.544688430803593e-10
"Vn_VDD:p" -2.544688430803593e-10
"Vn_Z:n" 0.000000000000000e+00
"Vn_Z:p" 0.000000000000000e+00
"time" 3.900000000000000e-11
"Vn_D1:v" 0.000000000000000e+00
"Vn_D1:i" 7.484300254490292e-14
"Vn_D1:pwr" 0.000000000000000e+00
"Vn_GND:v" 0.000000000000000e+00
"Vn_GND:i" 2.548642412359794e-10
"Vn_GND:pwr" 0.000000000000000e+00
"Vn_SD:v" 0.000000000000000e+00
"Vn_SD:i" -5.109881719994301e-13
"Vn_SD:pwr" -0.000000000000000e+00
"Vn_VDD:v" 1.200000000000000e+00
"Vn_VDD:i" -2.544791788452211e-10
"Vn_VDD:pwr" -3.053750146142653e-10
"Vn_Z:v" 0.000000000000000e+00
"Vn_Z:i" -3.848716964556540e-15
"Vn_Z:pwr" -0.000000000000000e+00
"n_Z" 1.199999494887945e+00
"n_D1" 0.000000000000000e+00
"n_SD" 1.200000000000000e+00
"Vn_D1:n" -7.484300254490292e-14
"Vn_D1:p" 7.484300254490292e-14
"Vn_GND:n" -2.548642412359794e-10
"Vn_GND:p" 2.548642412359794e-10
"Vn_SD:n" 5.109881719994301e-13
"Vn_SD:p" -5.109881719994301e-13
"Vn_VDD:n" 2.544791788452211e-10
"Vn_VDD:p" -2.544791788452211e-10
"Vn_Z:n" 3.848716964556540e-15
"Vn_Z:p" -3.848716964556540e-15
"time" 1.170000000000000e-10
"Vn_D1:v" 0.000000000000000e+00
"Vn_D1:i" 7.504931319890989e-14
"Vn_D1:pwr" 0.000000000000000e+00
"Vn_GND:v" 0.000000000000000e+00
"Vn_GND:i" 2.548657021396749e-10
"Vn_GND:pwr" 0.000000000000000e+00
"Vn_SD:v" 0.000000000000000e+00
"Vn_SD:i" -5.107071290622157e-13
"Vn_SD:pwr" -0.000000000000000e+00
"Vn_VDD:v" 1.200000000000000e+00
"Vn_VDD:i" -2.544838223588897e-10
"Vn_VDD:pwr" -3.053805868306676e-10
"Vn_Z:v" 0.000000000000000e+00
"Vn_Z:i" -1.153453846455173e-15
"Vn_Z:pwr" -0.000000000000000e+00
"n_Z" 1.199999494864268e+00
"n_D1" 0.000000000000000e+00
"n_SD" 1.200000000000000e+00
"Vn_D1:n" -7.504931319890989e-14
"Vn_D1:p" 7.504931319890989e-14
"Vn_GND:n" -2.548657021396749e-10
"Vn_GND:p" 2.548657021396749e-10
"Vn_SD:n" 5.107071290622157e-13
"Vn_SD:p" -5.107071290622157e-13
"Vn_VDD:n" 2.544838223588897e-10
"Vn_VDD:p" -2.544838223588897e-10
"Vn_Z:n" 1.153453846455173e-15
"Vn_Z:p" -1.153453846455173e-15
"time" 2.730000000000000e-10
"Vn_D1:v" 0.000000000000000e+00
"Vn_D1:i" 7.521724743942258e-14
"Vn_D1:pwr" 0.000000000000000e+00
"Vn_GND:v" 0.000000000000000e+00
"Vn_GND:i" 2.548665524546262e-10
"Vn_GND:pwr" 0.000000000000000e+00
"Vn_SD:v" 0.000000000000000e+00
"Vn_SD:i" -5.105180346205363e-13
"Vn_SD:pwr" -0.000000000000000e+00
"Vn_VDD:v" 1.200000000000000e+00
"Vn_VDD:i" -2.544866380454992e-10
"Vn_VDD:pwr" -3.053839656545991e-10
"Vn_Z:v" 0.000000000000000e+00
"Vn_Z:i" 4.518576818840277e-16
"Vn_Z:pwr" 0.000000000000000e+00
"n_Z" 1.199999494849867e+00
"n_D1" 0.000000000000000e+00
"n_SD" 1.200000000000000e+00
"Vn_D1:n" -7.521724743942258e-14
"Vn_D1:p" 7.521724743942258e-14
"Vn_GND:n" -2.548665524546262e-10
"Vn_GND:p" 2.548665524546262e-10
"Vn_SD:n" 5.105180346205363e-13
"Vn_SD:p" -5.105180346205363e-13
"Vn_VDD:n" 2.544866380454992e-10
"Vn_VDD:p" -2.544866380454992e-10
"Vn_Z:n" -4.518576818840277e-16
"Vn_Z:p" 4.518576818840277e-16
"time" 5.850000000000002e-10
"Vn_D1:v" 0.000000000000000e+00
"Vn_D1:i" 7.514279455676797e-14
"Vn_D1:pwr" 0.000000000000000e+00
"Vn_GND:v" 0.000000000000000e+00
"Vn_GND:i" 2.548661386436884e-10
"Vn_GND:pwr" 0.000000000000000e+00
"Vn_SD:v" 0.000000000000000e+00
"Vn_SD:i" -5.106031281489661e-13
"Vn_SD:pwr" -0.000000000000000e+00
"Vn_VDD:v" 1.200000000000000e+00
"Vn_VDD:i" -2.544853134766121e-10
"Vn_VDD:pwr" -3.053823761719345e-10
"Vn_Z:v" 0.000000000000000e+00
"Vn_Z:i" -2.881562624563616e-16
"Vn_Z:pwr" -0.000000000000000e+00
"n_Z" 1.199999494856588e+00
"n_D1" 0.000000000000000e+00
"n_SD" 1.200000000000000e+00
"Vn_D1:n" -7.514279455676797e-14
"Vn_D1:p" 7.514279455676797e-14
"Vn_GND:n" -2.548661386436884e-10
"Vn_GND:p" 2.548661386436884e-10
"Vn_SD:n" 5.106031281489661e-13
"Vn_SD:p" -5.106031281489661e-13
"Vn_VDD:n" 2.544853134766121e-10
"Vn_VDD:p" -2.544853134766121e-10
"Vn_Z:n" 2.881562624563616e-16
"Vn_Z:p" -2.881562624563616e-16
"time" 1.209000000000000e-09
"Vn_D1:v" 0.000000000000000e+00
"Vn_D1:i" 7.519367413207434e-14
"Vn_D1:pwr" 0.000000000000000e+00
"Vn_GND:v" 0.000000000000000e+00
"Vn_GND:i" 2.548663801983646e-10
"Vn_GND:pwr" 0.000000000000000e+00
"Vn_SD:v" 0.000000000000000e+00
"Vn_SD:i" -5.105442458541315e-13
"Vn_SD:pwr" -0.000000000000000e+00
"Vn_VDD:v" 1.200000000000000e+00
"Vn_VDD:i" -2.544862010122876e-10
"Vn_VDD:pwr" -3.053834412147450e-10
"Vn_Z:v" 0.000000000000000e+00
"Vn_Z:i" 2.332961622322641e-16
"Vn_Z:pwr" 0.000000000000000e+00
"n_Z" 1.199999494852084e+00
"n_D1" 0.000000000000000e+00
"n_SD" 1.200000000000000e+00
"Vn_D1:n" -7.519367413207434e-14
"Vn_D1:p" 7.519367413207434e-14
"Vn_GND:n" -2.548663801983646e-10
"Vn_GND:p" 2.548663801983646e-10
"Vn_SD:n" 5.105442458541315e-13
"Vn_SD:p" -5.105442458541315e-13
"Vn_VDD:n" 2.544862010122876e-10
"Vn_VDD:p" -2.544862010122876e-10
"Vn_Z:n" -2.332961622322641e-16
"Vn_Z:p" 2.332961622322641e-16
"time" 1.989000000000000e-09
"Vn_D1:v" 0.000000000000000e+00
"Vn_D1:i" 7.515299534195191e-14
"Vn_D1:pwr" 0.000000000000000e+00
"Vn_GND:v" 0.000000000000000e+00
"Vn_GND:i" 2.548661071076577e-10
"Vn_GND:pwr" 0.000000000000000e+00
"Vn_SD:v" 0.000000000000000e+00
"Vn_SD:i" -5.105917703408222e-13
"Vn_SD:pwr" -0.000000000000000e+00
"Vn_VDD:v" 1.200000000000000e+00
"Vn_VDD:i" -2.544853997783948e-10
"Vn_VDD:pwr" -3.053824797340738e-10
"Vn_Z:v" 0.000000000000000e+00
"Vn_Z:i" -1.942569267480115e-16
"Vn_Z:pwr" -0.000000000000000e+00
"n_Z" 1.199999494856090e+00
"n_D1" 0.000000000000000e+00
"n_SD" 1.200000000000000e+00
"Vn_D1:n" -7.515299534195191e-14
"Vn_D1:p" 7.515299534195191e-14
"Vn_GND:n" -2.548661071076577e-10
"Vn_GND:p" 2.548661071076577e-10
"Vn_SD:n" 5.105917703408222e-13
"Vn_SD:p" -5.105917703408222e-13
"Vn_VDD:n" 2.544853997783948e-10
"Vn_VDD:p" -2.544853997783948e-10
"Vn_Z:n" 1.942569267480115e-16
"Vn_Z:p" -1.942569267480115e-16
"time" 2.769000000000001e-09
"Vn_D1:v" 0.000000000000000e+00
"Vn_D1:i" 7.518624234100053e-14
"Vn_D1:pwr" 0.000000000000000e+00
"Vn_GND:v" 0.000000000000000e+00
"Vn_GND:i" 2.548662515948054e-10
"Vn_GND:pwr" 0.000000000000000e+00
"Vn_SD:v" 0.000000000000000e+00
"Vn_SD:i" -5.105525275793447e-13
"Vn_SD:pwr" -0.000000000000000e+00
"Vn_VDD:v" 1.200000000000000e+00
"Vn_VDD:i" -2.544859891293397e-10
"Vn_VDD:pwr" -3.053831869552076e-10
"Vn_Z:v" 0.000000000000000e+00
"Vn_Z:i" 1.649568907706268e-16
"Vn_Z:pwr" 0.000000000000000e+00
"n_Z" 1.199999494853083e+00
"n_D1" 0.000000000000000e+00
"n_SD" 1.200000000000000e+00
"Vn_D1:n" -7.518624234100053e-14
"Vn_D1:p" 7.518624234100053e-14
"Vn_GND:n" -2.548662515948054e-10
"Vn_GND:p" 2.548662515948054e-10
"Vn_SD:n" 5.105525275793447e-13
"Vn_SD:p" -5.105525275793447e-13
"Vn_VDD:n" 2.544859891293397e-10
"Vn_VDD:p" -2.544859891293397e-10
"Vn_Z:n" -1.649568907706268e-16
"Vn_Z:p" 1.649568907706268e-16
"time" 3.000000000000000e-09
"Vn_D1:v" 0.000000000000000e+00
"Vn_D1:i" 7.516441240776487e-14
"Vn_D1:pwr" 0.000000000000000e+00
"Vn_GND:v" 0.000000000000000e+00
"Vn_GND:i" 2.548661052073099e-10
"Vn_GND:pwr" 0.000000000000000e+00
"Vn_SD:v" 0.000000000000000e+00
"Vn_SD:i" -5.105790443584633e-13
"Vn_SD:pwr" -0.000000000000000e+00
"Vn_VDD:v" 1.200000000000000e+00
"Vn_VDD:i" -2.544855213175104e-10
"Vn_VDD:pwr" -3.053826255810125e-10
"Vn_Z:v" 0.000000000000000e+00
"Vn_Z:i" -8.845380319473175e-17
"Vn_Z:pwr" -0.000000000000000e+00
"n_Z" 1.199999494855408e+00
"n_D1" 0.000000000000000e+00
"n_SD" 1.200000000000000e+00
"Vn_D1:n" -7.516441240776487e-14
"Vn_D1:p" 7.516441240776487e-14
"Vn_GND:n" -2.548661052073099e-10
"Vn_GND:p" 2.548661052073099e-10
"Vn_SD:n" 5.105790443584633e-13
"Vn_SD:p" -5.105790443584633e-13
"Vn_VDD:n" 2.544855213175104e-10
"Vn_VDD:p" -2.544855213175104e-10
"Vn_Z:n" 8.845380319473175e-17
"Vn_Z:p" -8.845380319473175e-17
"time" 3.010000000000000e-09
"Vn_D1:v" 0.000000000000000e+00
"Vn_D1:i" 7.516419782194686e-14
"Vn_D1:pwr" 0.000000000000000e+00
"Vn_GND:v" 0.000000000000000e+00
"Vn_GND:i" 2.548661141194768e-10
"Vn_GND:pwr" 0.000000000000000e+00
"Vn_SD:v" 0.000000000000000e+00
"Vn_SD:i" -5.105782421375829e-13
"Vn_SD:pwr" -0.000000000000000e+00
"Vn_VDD:v" 1.200000000000000e+00
"Vn_VDD:i" -2.544855632641644e-10
"Vn_VDD:pwr" -3.053826759169973e-10
"Vn_Z:v" 0.000000000000000e+00
"Vn_Z:i" -6.822374904043499e-17
"Vn_Z:pwr" -0.000000000000000e+00
"n_Z" 1.199999494855229e+00
"n_D1" 0.000000000000000e+00
"n_SD" 1.200000000000000e+00
"Vn_D1:n" -7.516419782194686e-14
"Vn_D1:p" 7.516419782194686e-14
"Vn_GND:n" -2.548661141194768e-10
"Vn_GND:p" 2.548661141194768e-10
"Vn_SD:n" 5.105782421375829e-13
"Vn_SD:p" -5.105782421375829e-13
"Vn_VDD:n" 2.544855632641644e-10
"Vn_VDD:p" -2.544855632641644e-10
"Vn_Z:n" 6.822374904043499e-17
"Vn_Z:p" -6.822374904043499e-17
"time" 3.030000000000000e-09
"Vn_D1:v" 0.000000000000000e+00
"Vn_D1:i" 7.516662464652390e-14
"Vn_D1:pwr" 0.000000000000000e+00
"Vn_GND:v" 0.000000000000000e+00
"Vn_GND:i" 2.548661263868747e-10
"Vn_GND:pwr" 0.000000000000000e+00
"Vn_SD:v" 0.000000000000000e+00
"Vn_SD:i" -5.105754423441467e-13
"Vn_SD:pwr" -0.000000000000000e+00
"Vn_VDD:v" 1.200000000000000e+00
"Vn_VDD:i" -2.544856065664635e-10
"Vn_VDD:pwr" -3.053827278797562e-10
"Vn_Z:v" 0.000000000000000e+00
"Vn_Z:i" -4.250981910123825e-17
"Vn_Z:pwr" -0.000000000000000e+00
"n_Z" 1.199999494855005e+00
"n_D1" 0.000000000000000e+00
"n_SD" 1.200000000000000e+00
"Vn_D1:n" -7.516662464652390e-14
"Vn_D1:p" 7.516662464652390e-14
"Vn_GND:n" -2.548661263868747e-10
"Vn_GND:p" 2.548661263868747e-10
"Vn_SD:n" 5.105754423441467e-13
"Vn_SD:p" -5.105754423441467e-13
"Vn_VDD:n" 2.544856065664635e-10
"Vn_VDD:p" -2.544856065664635e-10
"Vn_Z:n" 4.250981910123825e-17
"Vn_Z:p" -4.250981910123825e-17
"time" 3.070000000000001e-09
"Vn_D1:v" 0.000000000000000e+00
"Vn_D1:i" 7.517027423564292e-14
"Vn_D1:pwr" 0.000000000000000e+00
"Vn_GND:v" 0.000000000000000e+00
"Vn_GND:i" 2.548661424321026e-10
"Vn_GND:pwr" 0.000000000000000e+00
"Vn_SD:v" 0.000000000000000e+00
"Vn_SD:i" -5.105714005479160e-13
"Vn_SD:pwr" -0.000000000000000e+00
"Vn_VDD:v" 1.200000000000000e+00
"Vn_VDD:i" -2.544856559888737e-10
"Vn_VDD:pwr" -3.053827871866484e-10
"Vn_Z:v" 0.000000000000000e+00
"Vn_Z:i" -8.982053683310143e-18
"Vn_Z:pwr" -0.000000000000000e+00
"n_Z" 1.199999494854734e+00
"n_D1" 0.000000000000000e+00
"n_SD" 1.200000000000000e+00
"Vn_D1:n" -7.517027423564292e-14
"Vn_D1:p" 7.517027423564292e-14
"Vn_GND:n" -2.548661424321026e-10
"Vn_GND:p" 2.548661424321026e-10
"Vn_SD:n" 5.105714005479160e-13
"Vn_SD:p" -5.105714005479160e-13
"Vn_VDD:n" 2.544856559888737e-10
"Vn_VDD:p" -2.544856559888737e-10
"Vn_Z:n" 8.982053683310143e-18
"Vn_Z:p" -8.982053683310143e-18
"time" 3.150000000000003e-09
"Vn_D1:v" 0.000000000000000e+00
"Vn_D1:i" 7.517101347915686e-14
"Vn_D1:pwr" 0.000000000000000e+00
"Vn_GND:v" 0.000000000000000e+00
"Vn_GND:i" 2.548661412763300e-10
"Vn_GND:pwr" 0.000000000000000e+00
"Vn_SD:v" 0.000000000000000e+00
"Vn_SD:i" -5.105706094370265e-13
"Vn_SD:pwr" -0.000000000000000e+00
"Vn_VDD:v" 1.200000000000000e+00
"Vn_VDD:i" -2.544856804669247e-10
"Vn_VDD:pwr" -3.053828165603096e-10
"Vn_Z:v" 0.000000000000000e+00
"Vn_Z:i" -8.688432212630179e-19
"Vn_Z:pwr" -0.000000000000000e+00
"n_Z" 1.199999494854630e+00
"n_D1" 0.000000000000000e+00
"n_SD" 1.200000000000000e+00
"Vn_D1:n" -7.517101347915686e-14
"Vn_D1:p" 7.517101347915686e-14
"Vn_GND:n" -2.548661412763300e-10
"Vn_GND:p" 2.548661412763300e-10
"Vn_SD:n" 5.105706094370265e-13
"Vn_SD:p" -5.105706094370265e-13
"Vn_VDD:n" 2.544856804669247e-10
"Vn_VDD:p" -2.544856804669247e-10
"Vn_Z:n" 8.688432212630179e-19
"Vn_Z:p" -8.688432212630179e-19
"time" 3.310000000000005e-09
"Vn_D1:v" 0.000000000000000e+00
"Vn_D1:i" 7.517162765800745e-14
"Vn_D1:pwr" 0.000000000000000e+00
"Vn_GND:v" 0.000000000000000e+00
"Vn_GND:i" 2.548661348780418e-10
"Vn_GND:pwr" 0.000000000000000e+00
"Vn_SD:v" 0.000000000000000e+00
"Vn_SD:i" -5.105699146019982e-13
"Vn_SD:pwr" -0.000000000000000e+00
"Vn_VDD:v" 1.200000000000000e+00
"Vn_VDD:i" -2.544856665321768e-10
"Vn_VDD:pwr" -3.053827998386121e-10
"Vn_Z:v" 0.000000000000000e+00
"Vn_Z:i" 3.285425891832138e-18
"Vn_Z:pwr" 0.000000000000000e+00
"n_Z" 1.199999494854681e+00
"n_D1" 0.000000000000000e+00
"n_SD" 1.200000000000000e+00
"Vn_D1:n" -7.517162765800745e-14
"Vn_D1:p" 7.517162765800745e-14
"Vn_GND:n" -2.548661348780418e-10
"Vn_GND:p" 2.548661348780418e-10
"Vn_SD:n" 5.105699146019982e-13
"Vn_SD:p" -5.105699146019982e-13
"Vn_VDD:n" 2.544856665321768e-10
"Vn_VDD:p" -2.544856665321768e-10
"Vn_Z:n" -3.285425891832138e-18
"Vn_Z:p" 3.285425891832138e-18
"time" 3.630000000000011e-09
"Vn_D1:v" 0.000000000000000e+00
"Vn_D1:i" 7.517097572615793e-14
"Vn_D1:pwr" 0.000000000000000e+00
"Vn_GND:v" 0.000000000000000e+00
"Vn_GND:i" 2.548661131957058e-10
"Vn_GND:pwr" 0.000000000000000e+00
"Vn_SD:v" 0.000000000000000e+00
"Vn_SD:i" -5.105706152624266e-13
"Vn_SD:pwr" -0.000000000000000e+00
"Vn_VDD:v" 1.200000000000000e+00
"Vn_VDD:i" -2.544856468428352e-10
"Vn_VDD:pwr" -3.053827762114022e-10
"Vn_Z:v" 0.000000000000000e+00
"Vn_Z:i" -1.129248566242789e-18
"Vn_Z:pwr" -0.000000000000000e+00
"n_Z" 1.199999494854772e+00
"n_D1" 0.000000000000000e+00
"n_SD" 1.200000000000000e+00
"Vn_D1:n" -7.517097572615793e-14
"Vn_D1:p" 7.517097572615793e-14
"Vn_GND:n" -2.548661131957058e-10
"Vn_GND:p" 2.548661131957058e-10
"Vn_SD:n" 5.105706152624266e-13
"Vn_SD:p" -5.105706152624266e-13
"Vn_VDD:n" 2.544856468428352e-10
"Vn_VDD:p" -2.544856468428352e-10
"Vn_Z:n" 1.129248566242789e-18
"Vn_Z:p" -1.129248566242789e-18
"time" 4.270000000000022e-09
"Vn_D1:v" 0.000000000000000e+00
"Vn_D1:i" 7.517170019141631e-14
"Vn_D1:pwr" 0.000000000000000e+00
"Vn_GND:v" 0.000000000000000e+00
"Vn_GND:i" 2.548660794218622e-10
"Vn_GND:pwr" 0.000000000000000e+00
"Vn_SD:v" 0.000000000000000e+00
"Vn_SD:i" -5.105698605752313e-13
"Vn_SD:pwr" -0.000000000000000e+00
"Vn_VDD:v" 1.200000000000000e+00
"Vn_VDD:i" -2.544856085401033e-10
"Vn_VDD:pwr" -3.053827302481239e-10
"Vn_Z:v" 0.000000000000000e+00
"Vn_Z:i" 2.968367517235107e-18
"Vn_Z:pwr" 0.000000000000000e+00
"n_Z" 1.199999494854927e+00
"n_D1" 0.000000000000000e+00
"n_SD" 1.200000000000000e+00
"Vn_D1:n" -7.517170019141631e-14
"Vn_D1:p" 7.517170019141631e-14
"Vn_GND:n" -2.548660794218622e-10
"Vn_GND:p" 2.548660794218622e-10
"Vn_SD:n" 5.105698605752313e-13
"Vn_SD:p" -5.105698605752313e-13
"Vn_VDD:n" 2.544856085401033e-10
"Vn_VDD:p" -2.544856085401033e-10
"Vn_Z:n" -2.968367517235107e-18
"Vn_Z:p" 2.968367517235107e-18
"time" 5.050000000000022e-09
"Vn_D1:v" 0.000000000000000e+00
"Vn_D1:i" 7.517078742289117e-14
"Vn_D1:pwr" 0.000000000000000e+00
"Vn_GND:v" 0.000000000000000e+00
"Vn_GND:i" 2.548660295257084e-10
"Vn_GND:pwr" 0.000000000000000e+00
"Vn_SD:v" 0.000000000000000e+00
"Vn_SD:i" -5.105708164850142e-13
"Vn_SD:pwr" -0.000000000000000e+00
"Vn_VDD:v" 1.200000000000000e+00
"Vn_VDD:i" -2.544855669248712e-10
"Vn_VDD:pwr" -3.053826803098454e-10
"Vn_Z:v" 0.000000000000000e+00
"Vn_Z:i" -1.089944217852036e-18
"Vn_Z:pwr" -0.000000000000000e+00
"n_Z" 1.199999494855119e+00
"n_D1" 0.000000000000000e+00
"n_SD" 1.200000000000000e+00
"Vn_D1:n" -7.517078742289117e-14
"Vn_D1:p" 7.517078742289117e-14
"Vn_GND:n" -2.548660295257084e-10
"Vn_GND:p" 2.548660295257084e-10
"Vn_SD:n" 5.105708164850142e-13
"Vn_SD:p" -5.105708164850142e-13
"Vn_VDD:n" 2.544855669248712e-10
"Vn_VDD:p" -2.544855669248712e-10
"Vn_Z:n" 1.089944217852036e-18
"Vn_Z:p" -1.089944217852036e-18
"time" 5.830000000000022e-09
"Vn_D1:v" 0.000000000000000e+00
"Vn_D1:i" 7.517178409435499e-14
"Vn_D1:pwr" 0.000000000000000e+00
"Vn_GND:v" 0.000000000000000e+00
"Vn_GND:i" 2.548659895129207e-10
"Vn_GND:pwr" 0.000000000000000e+00
"Vn_SD:v" 0.000000000000000e+00
"Vn_SD:i" -5.105697725028538e-13
"Vn_SD:pwr" -0.000000000000000e+00
"Vn_VDD:v" 1.200000000000000e+00
"Vn_VDD:i" -2.544855252655163e-10
"Vn_VDD:pwr" -3.053826303186195e-10
"Vn_Z:v" 0.000000000000000e+00
"Vn_Z:i" 2.852931470694089e-18
"Vn_Z:pwr" 0.000000000000000e+00
"n_Z" 1.199999494855300e+00
"n_D1" 0.000000000000000e+00
"n_SD" 1.200000000000000e+00
"Vn_D1:n" -7.517178409435499e-14
"Vn_D1:p" 7.517178409435499e-14
"Vn_GND:n" -2.548659895129207e-10
"Vn_GND:p" 2.548659895129207e-10
"Vn_SD:n" 5.105697725028538e-13
"Vn_SD:p" -5.105697725028538e-13
"Vn_VDD:n" 2.544855252655163e-10
"Vn_VDD:p" -2.544855252655163e-10
"Vn_Z:n" -2.852931470694089e-18
"Vn_Z:p" 2.852931470694089e-18
"time" 6.010000000000000e-09
"Vn_D1:v" 0.000000000000000e+00
"Vn_D1:i" 7.517089976384854e-14
"Vn_D1:pwr" 0.000000000000000e+00
"Vn_GND:v" 0.000000000000000e+00
"Vn_GND:i" 2.548659745110104e-10
"Vn_GND:pwr" 0.000000000000000e+00
"Vn_SD:v" 0.000000000000000e+00
"Vn_SD:i" -5.105706736705786e-13
"Vn_SD:pwr" -0.000000000000000e+00
"Vn_VDD:v" 1.200000000000000e+00
"Vn_VDD:i" -2.544855102739141e-10
"Vn_VDD:pwr" -3.053826123286969e-10
"Vn_Z:v" 0.000000000000000e+00
"Vn_Z:i" 9.658737897513763e-21
"Vn_Z:pwr" 0.000000000000000e+00
"n_Z" 1.199999494855368e+00
"n_D1" 0.000000000000000e+00
"n_SD" 1.200000000000000e+00
"Vn_D1:n" -7.517089976384854e-14
"Vn_D1:p" 7.517089976384854e-14
"Vn_GND:n" -2.548659745110104e-10
"Vn_GND:p" 2.548659745110104e-10
"Vn_SD:n" 5.105706736705786e-13
"Vn_SD:p" -5.105706736705786e-13
"Vn_VDD:n" 2.544855102739141e-10
"Vn_VDD:p" -2.544855102739141e-10
"Vn_Z:n" -9.658737897513763e-21
"Vn_Z:p" 9.658737897513763e-21
"time" 6.019999550200000e-09
"Vn_D1:v" 0.000000000000000e+00
"Vn_D1:i" 7.517131794246926e-14
"Vn_D1:pwr" 0.000000000000000e+00
"Vn_GND:v" 0.000000000000000e+00
"Vn_GND:i" 2.548659757511927e-10
"Vn_GND:pwr" 0.000000000000000e+00
"Vn_SD:v" 0.000000000000000e+00
"Vn_SD:i" -5.105703403153420e-13
"Vn_SD:pwr" -0.000000000000000e+00
"Vn_VDD:v" 1.200000000000000e+00
"Vn_VDD:i" -2.544855084828133e-10
"Vn_VDD:pwr" -3.053826101793760e-10
"Vn_Z:v" 0.000000000000000e+00
"Vn_Z:i" 2.733175052078126e-19
"Vn_Z:pwr" 0.000000000000000e+00
"n_Z" 1.199999494855369e+00
"n_D1" 0.000000000000000e+00
"n_SD" 1.200000000000000e+00
"Vn_D1:n" -7.517131794246926e-14
"Vn_D1:p" 7.517131794246926e-14
"Vn_GND:n" -2.548659757511927e-10
"Vn_GND:p" 2.548659757511927e-10
"Vn_SD:n" 5.105703403153420e-13
"Vn_SD:p" -5.105703403153420e-13
"Vn_VDD:n" 2.544855084828133e-10
"Vn_VDD:p" -2.544855084828133e-10
"Vn_Z:n" -2.733175052078126e-19
"Vn_Z:p" 2.733175052078126e-19
"time" 6.020000000000000e-09
"Vn_D1:v" 0.000000000000000e+00
"Vn_D1:i" -6.134735487273069e-07
"Vn_D1:pwr" -0.000000000000000e+00
"Vn_GND:v" 0.000000000000000e+00
"Vn_GND:i" 1.103289217412389e-07
"Vn_GND:pwr" 0.000000000000000e+00
"Vn_SD:v" 0.000000000000000e+00
"Vn_SD:i" 5.431371103483351e-11
"Vn_SD:pwr" 0.000000000000000e+00
"Vn_VDD:v" 1.200000000000000e+00
"Vn_VDD:i" 5.030897695644736e-07
"Vn_VDD:pwr" 6.037077234773683e-07
"Vn_Z:v" 0.000000000000000e+00
"Vn_Z:i" 4.894107048733167e-13
"Vn_Z:pwr" 0.000000000000000e+00
"n_Z" 1.199999494855427e+00
"n_D1" 2.456136039079392e-07
"n_SD" 1.200000000000000e+00
"Vn_D1:n" 6.134735487273069e-07
"Vn_D1:p" -6.134735487273069e-07
"Vn_GND:n" -1.103289217412389e-07
"Vn_GND:p" 1.103289217412389e-07
"Vn_SD:n" -5.431371103483351e-11
"Vn_SD:p" 5.431371103483351e-11
"Vn_VDD:n" -5.030897695644736e-07
"Vn_VDD:p" 5.030897695644736e-07
"Vn_Z:n" -4.894107048733167e-13
"Vn_Z:p" 4.894107048733167e-13
"time" 6.020000899600001e-09
"Vn_D1:v" 0.000000000000000e+00
"Vn_D1:i" -6.147226911166443e-07
"Vn_D1:pwr" -0.000000000000000e+00
"Vn_GND:v" 0.000000000000000e+00
"Vn_GND:i" 1.105449084625140e-07
"Vn_GND:pwr" 0.000000000000000e+00
"Vn_SD:v" 0.000000000000000e+00
"Vn_SD:i" 1.633536329341104e-10
"Vn_SD:pwr" 0.000000000000000e+00
"Vn_VDD:v" 1.200000000000000e+00
"Vn_VDD:i" 5.040110042600144e-07
"Vn_VDD:pwr" 6.048132051120173e-07
"Vn_Z:v" 0.000000000000000e+00
"Vn_Z:i" 3.369892446456758e-12
"Vn_Z:pwr" 0.000000000000000e+00
"n_Z" 1.199999494856224e+00
"n_D1" 7.368408117238176e-07
"n_SD" 1.200000000000000e+00
"Vn_D1:n" 6.147226911166443e-07
"Vn_D1:p" -6.147226911166443e-07
"Vn_GND:n" -1.105449084625140e-07
"Vn_GND:p" 1.105449084625140e-07
"Vn_SD:n" -1.633536329341104e-10
"Vn_SD:p" 1.633536329341104e-10
"Vn_VDD:n" -5.040110042600144e-07
"Vn_VDD:p" 5.040110042600144e-07
"Vn_Z:n" -3.369892446456758e-12
"Vn_Z:p" 3.369892446456758e-12
"time" 6.020002698800002e-09
"Vn_D1:v" 0.000000000000000e+00
"Vn_D1:i" -6.172051184699219e-07
"Vn_D1:pwr" -0.000000000000000e+00
"Vn_GND:v" 0.000000000000000e+00
"Vn_GND:i" 1.109743346223296e-07
"Vn_GND:pwr" 0.000000000000000e+00
"Vn_SD:v" 0.000000000000000e+00
"Vn_SD:i" 3.802257159808489e-10
"Vn_SD:pwr" 0.000000000000000e+00
"Vn_VDD:v" 1.200000000000000e+00
"Vn_VDD:i" 5.058376790408845e-07
"Vn_VDD:pwr" 6.070052148490613e-07
"Vn_Z:v" 0.000000000000000e+00
"Vn_Z:i" 1.282501942180261e-11
"Vn_Z:pwr" 0.000000000000000e+00
"n_Z" 1.199999494860058e+00
"n_D1" 1.719295227355574e-06
"n_SD" 1.200000000000000e+00
"Vn_D1:n" 6.172051184699219e-07
"Vn_D1:p" -6.172051184699219e-07
"Vn_GND:n" -1.109743346223296e-07
"Vn_GND:p" 1.109743346223296e-07
"Vn_SD:n" -3.802257159808489e-10
"Vn_SD:p" 3.802257159808489e-10
"Vn_VDD:n" -5.058376790408845e-07
"Vn_VDD:p" 5.058376790408845e-07
"Vn_Z:n" -1.282501942180261e-11
"Vn_Z:p" 1.282501942180261e-11
"time" 6.020006297200004e-09
"Vn_D1:v" 0.000000000000000e+00
"Vn_D1:i" -6.220761721914081e-07
"Vn_D1:pwr" -0.000000000000000e+00
"Vn_GND:v" 0.000000000000000e+00
"Vn_GND:i" 1.118181124626484e-07
"Vn_GND:pwr" 0.000000000000000e+00
"Vn_SD:v" 0.000000000000000e+00
"Vn_SD:i" 8.067803319099717e-10
"Vn_SD:pwr" 0.000000000000000e+00
"Vn_VDD:v" 1.200000000000000e+00
"Vn_VDD:i" 5.093985700344151e-07
"Vn_VDD:pwr" 6.112782840412981e-07
"Vn_Z:v" 0.000000000000000e+00
"Vn_Z:i" 5.265351729352252e-11
"Vn_Z:pwr" 0.000000000000000e+00
"n_Z" 1.199999494891061e+00
"n_D1" 3.684204058619088e-06
"n_SD" 1.200000000000000e+00
"Vn_D1:n" 6.220761721914081e-07
"Vn_D1:p" -6.220761721914081e-07
"Vn_GND:n" -1.118181124626484e-07
"Vn_GND:p" 1.118181124626484e-07
"Vn_SD:n" -8.067803319099717e-10
"Vn_SD:p" 8.067803319099717e-10
"Vn_VDD:n" -5.093985700344151e-07
"Vn_VDD:p" 5.093985700344151e-07
"Vn_Z:n" -5.265351729352252e-11
"Vn_Z:p" 5.265351729352252e-11
"time" 6.020013494000009e-09
"Vn_D1:v" 0.000000000000000e+00
"Vn_D1:i" -6.314573116114358e-07
"Vn_D1:pwr" -0.000000000000000e+00
"Vn_GND:v" 0.000000000000000e+00
"Vn_GND:i" 1.134469698932433e-07
"Vn_GND:pwr" 0.000000000000000e+00
"Vn_SD:v" 0.000000000000000e+00
"Vn_SD:i" 1.631843732382894e-09
"Vn_SD:pwr" 0.000000000000000e+00
"Vn_VDD:v" 1.200000000000000e+00
"Vn_VDD:i" 5.161737724703533e-07
"Vn_VDD:pwr" 6.194085269644239e-07
"Vn_Z:v" 0.000000000000000e+00
"Vn_Z:i" 2.046715737541106e-10
"Vn_Z:pwr" 0.000000000000000e+00
"n_Z" 1.199999495134734e+00
"n_D1" 7.614021721146115e-06
"n_SD" 1.200000000000000e+00
"Vn_D1:n" 6.314573116114358e-07
"Vn_D1:p" -6.314573116114358e-07
"Vn_GND:n" -1.134469698932433e-07
"Vn_GND:p" 1.134469698932433e-07
"Vn_SD:n" -1.631843732382894e-09
"Vn_SD:p" 1.631843732382894e-09
"Vn_VDD:n" -5.161737724703533e-07
"Vn_VDD:p" 5.161737724703533e-07
"Vn_Z:n" -2.046715737541106e-10
"Vn_Z:p" 2.046715737541106e-10
"time" 6.020027887600018e-09
"Vn_D1:v" 0.000000000000000e+00
"Vn_D1:i" -6.488790552157787e-07
"Vn_D1:pwr" -0.000000000000000e+00
"Vn_GND:v" 0.000000000000000e+00
"Vn_GND:i" 1.164824378385202e-07
"Vn_GND:pwr" 0.000000000000000e+00
"Vn_SD:v" 0.000000000000000e+00
"Vn_SD:i" 3.175360733228864e-09
"Vn_SD:pwr" 0.000000000000000e+00
"Vn_VDD:v" 1.200000000000000e+00
"Vn_VDD:i" 5.284961226505844e-07
"Vn_VDD:pwr" 6.341953471807013e-07
"Vn_Z:v" 0.000000000000000e+00
"Vn_Z:i" 7.250780983291017e-10
"Vn_Z:pwr" 0.000000000000000e+00
"n_Z" 1.199999496895582e+00
"n_D1" 1.547365704620017e-05
"n_SD" 1.200000000000000e+00
"Vn_D1:n" 6.488790552157787e-07
"Vn_D1:p" -6.488790552157787e-07
"Vn_GND:n" -1.164824378385202e-07
"Vn_GND:p" 1.164824378385202e-07
"Vn_SD:n" -3.175360733228864e-09
"Vn_SD:p" 3.175360733228864e-09
"Vn_VDD:n" -5.284961226505844e-07
"Vn_VDD:p" 5.284961226505844e-07
"Vn_Z:n" -7.250780983291017e-10
"Vn_Z:p" 7.250780983291017e-10
"time" 6.020056674800035e-09
"Vn_D1:v" 0.000000000000000e+00
"Vn_D1:i" -6.668232054603748e-07
"Vn_D1:pwr" -0.000000000000000e+00
"Vn_GND:v" 0.000000000000000e+00
"Vn_GND:i" 1.218081124284188e-07
"Vn_GND:pwr" 0.000000000000000e+00
"Vn_SD:v" 0.000000000000000e+00
"Vn_SD:i" 5.886021799696996e-09
"Vn_SD:pwr" 0.000000000000000e+00
"Vn_VDD:v" 1.200000000000000e+00
"Vn_VDD:i" 5.368712298361328e-07
"Vn_VDD:pwr" 6.442454758033594e-07
"Vn_Z:v" 0.000000000000000e+00
"Vn_Z:i" 2.257787418999915e-09
"Vn_Z:pwr" 0.000000000000000e+00
"n_Z" 1.199999508194049e+00
"n_D1" 3.119292769630828e-05
"n_SD" 1.200000000000000e+00
"Vn_D1:n" 6.668232054603748e-07
"Vn_D1:p" -6.668232054603748e-07
"Vn_GND:n" -1.218081124284188e-07
"Vn_GND:p" 1.218081124284188e-07
"Vn_SD:n" -5.886021799696996e-09
"Vn_SD:p" 5.886021799696996e-09
"Vn_VDD:n" -5.368712298361328e-07
"Vn_VDD:p" 5.368712298361328e-07
"Vn_Z:n" -2.257787418999915e-09
"Vn_Z:p" 2.257787418999915e-09
"time" 6.020114249200071e-09
"Vn_D1:v" 0.000000000000000e+00
"Vn_D1:i" -7.160306480308434e-07
"Vn_D1:pwr" -0.000000000000000e+00
"Vn_GND:v" 0.000000000000000e+00
"Vn_GND:i" 1.299968173654923e-07
"Vn_GND:pwr" 0.000000000000000e+00
"Vn_SD:v" 0.000000000000000e+00
"Vn_SD:i" 1.011274245095204e-08
"Vn_SD:pwr" 0.000000000000000e+00
"Vn_VDD:v" 1.200000000000000e+00
"Vn_VDD:i" 5.700706806360689e-07
"Vn_VDD:pwr" 6.840848167632827e-07
"Vn_Z:v" 0.000000000000000e+00
"Vn_Z:i" 5.850351739966075e-09
"Vn_Z:pwr" 0.000000000000000e+00
"n_Z" 1.199999569617897e+00
"n_D1" 6.263146899652450e-05
"n_SD" 1.200000000000000e+00
"Vn_D1:n" 7.160306480308434e-07
"Vn_D1:p" -7.160306480308434e-07
"Vn_GND:n" -1.299968173654923e-07
"Vn_GND:p" 1.299968173654923e-07
"Vn_SD:n" -1.011274245095204e-08
"Vn_SD:p" 1.011274245095204e-08
"Vn_VDD:n" -5.700706806360689e-07
"Vn_VDD:p" 5.700706806360689e-07
"Vn_Z:n" -5.850351739966075e-09
"Vn_Z:p" 5.850351739966075e-09
"time" 6.020229398000143e-09
"Vn_D1:v" 0.000000000000000e+00
"Vn_D1:i" -7.609118522144469e-07
"Vn_D1:pwr" -0.000000000000000e+00
"Vn_GND:v" 0.000000000000000e+00
"Vn_GND:i" 1.400105987585639e-07
"Vn_GND:pwr" 0.000000000000000e+00
"Vn_SD:v" 0.000000000000000e+00
"Vn_SD:i" 1.539074142691847e-08