HEADER
"PSFversion" "1.00"
"simulator" "spectre"
"version" "10.1.1.164.isr11"
"date" "3:01:57 PM, Fri Oct 17, 2014"
"design" "* Spectre Timing Acquisition"
"analysis type" "tran"
"analysis name" "transient1-003_transient1"
"analysis description" "Transient Analysis `transient1-003_transient1': time = (0 s -> 39 ns)"
"xVecSorted" "ascending"
"tolerance.relative" 0.00100000
"start" 0.00000
"outputstart" 0.00000
"stop" 3.90000e-08
"step" 3.90000e-11
"maxstep" 7.80000e-10
"ic" "all"
"useprevic" "no"
"skipdc" "no"
"reltol" 0.00100000
"abstol(V)" 1.00000e-06
"abstol(I)" 1.00000e-12
"temp" 25.0000
"tnom" 27.0000
"tempeffects" "all"
"errpreset" "moderate"
"method" "traponly"
"lteratio" 3.50000
"relref" "sigglobal"
"cmin" 0.00000
"gmin" 1.00000e-12
TYPE
"sweep" FLOAT DOUBLE PROP(
"key" "sweep"
)
"Tau" FLOAT DOUBLE PROP(
"units" "N*m"
"key" "node"
"tolerance" 1.00000e-06
)
"Alpha" FLOAT DOUBLE PROP(
"units" "rads/s^2"
"key" "node"
"tolerance" 1.00000e-06
)
"Omega" FLOAT DOUBLE PROP(
"units" "rads/s"
"key" "node"
"tolerance" 1.00000e-06
)
"Theta" FLOAT DOUBLE PROP(
"units" "rads"
"key" "node"
"tolerance" 1.00000e-06
)
"F" FLOAT DOUBLE PROP(
"units" "N"
"key" "node"
"tolerance" 1.00000e-06
)
"Imp" FLOAT DOUBLE PROP(
"units" "m/s^3"
"key" "node"
"tolerance" 1.00000e-06
)
"Acc" FLOAT DOUBLE PROP(
"units" "m/s^2"
"key" "node"
"tolerance" 1.00000e-06
)
"Vel" FLOAT DOUBLE PROP(
"units" "m/s"
"key" "node"
"tolerance" 1.00000e-06
)
"Pos" FLOAT DOUBLE PROP(
"units" "m"
"key" "node"
"tolerance" 1.00000e-06
)
"Phi" FLOAT DOUBLE PROP(
"units" "Wb"
"key" "node"
"tolerance" 1.00000e-09
)
"Q" FLOAT DOUBLE PROP(
"units" "coul"
"key" "node"
"tolerance" 1.00000e-14
)
"V" FLOAT DOUBLE PROP(
"units" "V"
"key" "node"
"tolerance" 1.00000e-06
)
"I" FLOAT DOUBLE PROP(
"units" "A"
"key" "branch"
"tolerance" 1.00000e-12
)
"MMF" FLOAT DOUBLE PROP(
"units" "A*turn"
"key" "node"
"tolerance" 1.00000e-12
)
"Wb" FLOAT DOUBLE PROP(
"units" "Wb"
"key" "node"
"tolerance" 1.00000e-09
)
"Temp" FLOAT DOUBLE PROP(
"units" "C"
"key" "node"
"tolerance" 0.000100000
)
"Pwr" FLOAT DOUBLE PROP(
"units" "W"
"key" "node"
"tolerance" 1.00000e-09
)
"U" FLOAT DOUBLE PROP(
"units" ""
"key" "node"
"tolerance" 1.00000e-06
)
"V/Sec" FLOAT DOUBLE PROP(
"units" "V/s"
"key" "node"
"tolerance" 0.000100000
)
"I/Sec" FLOAT DOUBLE PROP(
"units" "A/s"
"key" "node"
"tolerance" 1.00000e-06
)
"1/Sec" FLOAT DOUBLE PROP(
"units" "1/s"
"key" "node"
"tolerance" 0.000100000
)
"HOD" FLOAT DOUBLE PROP(
"units" ""
"key" "node"
"tolerance" 0.0100000
)
"A" FLOAT DOUBLE PROP(
"key" "inst"
)
"W" FLOAT DOUBLE PROP(
"key" "inst"
)
SWEEP
"time" "sweep" PROP(
"sweep_direction" 0
"units" "s"
"plot" 0
"grid" 1
)
TRACE
"Vn_D1:v" "V" PROP(
"units" "V"
)
"Vn_D1:i" "A" PROP(
"units" "A"
)
"Vn_D1:pwr" "W" PROP(
"units" "W"
)
"Vn_GND:v" "V" PROP(
"units" "V"
)
"Vn_GND:i" "A" PROP(
"units" "A"
)
"Vn_GND:pwr" "W" PROP(
"units" "W"
)
"Vn_SD:v" "V" PROP(
"units" "V"
)
"Vn_SD:i" "A" PROP(
"units" "A"
)
"Vn_SD:pwr" "W" PROP(
"units" "W"
)
"Vn_VDD:v" "V" PROP(
"units" "V"
)
"Vn_VDD:i" "A" PROP(
"units" "A"
)
"Vn_VDD:pwr" "W" PROP(
"units" "W"
)
"Vn_Z:v" "V" PROP(
"units" "V"
)
"Vn_Z:i" "A" PROP(
"units" "A"
)
"Vn_Z:pwr" "W" PROP(
"units" "W"
)
"n_Z" "V"
"n_D1" "V"
"n_SD" "V"
"Vn_D1:n" "I"
"Vn_D1:p" "I"
"Vn_GND:n" "I"
"Vn_GND:p" "I"
"Vn_SD:n" "I"
"Vn_SD:p" "I"
"Vn_VDD:n" "I"
"Vn_VDD:p" "I"
"Vn_Z:n" "I"
"Vn_Z:p" "I"
VALUE
"time" 0.000000000000000e+00
"Vn_D1:v" 0.000000000000000e+00
"Vn_D1:i" 7.517119452868266e-14
"Vn_D1:pwr" 0.000000000000000e+00
"Vn_GND:v" 0.000000000000000e+00
"Vn_GND:i" 2.548493107913156e-10
"Vn_GND:pwr" 0.000000000000000e+00
"Vn_SD:v" 0.000000000000000e+00
"Vn_SD:i" -5.105704018311278e-13
"Vn_SD:pwr" -0.000000000000000e+00
"Vn_VDD:v" 1.200000000000000e+00
"Vn_VDD:i" -2.544688430803594e-10
"Vn_VDD:pwr" -3.053626116964313e-10
"Vn_Z:v" 0.000000000000000e+00
"Vn_Z:i" 0.000000000000000e+00
"Vn_Z:pwr" 0.000000000000000e+00
"n_Z" 1.199999494927445e+00
"n_D1" 0.000000000000000e+00
"n_SD" 1.200000000000000e+00
"Vn_D1:n" -7.517119452868266e-14
"Vn_D1:p" 7.517119452868266e-14
"Vn_GND:n" -2.548493107913156e-10
"Vn_GND:p" 2.548493107913156e-10
"Vn_SD:n" 5.105704018311278e-13
"Vn_SD:p" -5.105704018311278e-13
"Vn_VDD:n" 2.544688430803594e-10
"Vn_VDD:p" -2.544688430803594e-10
"Vn_Z:n" 0.000000000000000e+00
"Vn_Z:p" 0.000000000000000e+00
"time" 3.900000000000000e-11
"Vn_D1:v" 0.000000000000000e+00
"Vn_D1:i" 7.485702064107475e-14
"Vn_D1:pwr" 0.000000000000000e+00
"Vn_GND:v" 0.000000000000000e+00
"Vn_GND:i" 2.548643158389864e-10
"Vn_GND:pwr" 0.000000000000000e+00
"Vn_SD:v" 0.000000000000000e+00
"Vn_SD:i" -5.109670660340946e-13
"Vn_SD:pwr" -0.000000000000000e+00
"Vn_VDD:v" 1.200000000000000e+00
"Vn_VDD:i" -2.544785794936396e-10
"Vn_VDD:pwr" -3.053742953923675e-10
"Vn_Z:v" 0.000000000000000e+00
"Vn_Z:i" -4.557795614458536e-15
"Vn_Z:pwr" -0.000000000000000e+00
"n_Z" 1.199999494889625e+00
"n_D1" 0.000000000000000e+00
"n_SD" 1.200000000000000e+00
"Vn_D1:n" -7.485702064107475e-14
"Vn_D1:p" 7.485702064107475e-14
"Vn_GND:n" -2.548643158389864e-10
"Vn_GND:p" 2.548643158389864e-10
"Vn_SD:n" 5.109670660340946e-13
"Vn_SD:p" -5.109670660340946e-13
"Vn_VDD:n" 2.544785794936396e-10
"Vn_VDD:p" -2.544785794936396e-10
"Vn_Z:n" 4.557795614458536e-15
"Vn_Z:p" -4.557795614458536e-15
"time" 1.170000000000000e-10
"Vn_D1:v" 0.000000000000000e+00
"Vn_D1:i" 7.504789658416644e-14
"Vn_D1:pwr" 0.000000000000000e+00
"Vn_GND:v" 0.000000000000000e+00
"Vn_GND:i" 2.548656933988427e-10
"Vn_GND:pwr" 0.000000000000000e+00
"Vn_SD:v" 0.000000000000000e+00
"Vn_SD:i" -5.107104187880552e-13
"Vn_SD:pwr" -0.000000000000000e+00
"Vn_VDD:v" 1.200000000000000e+00
"Vn_VDD:i" -2.544835061757052e-10
"Vn_VDD:pwr" -3.053802074108462e-10
"Vn_Z:v" 0.000000000000000e+00
"Vn_Z:i" -1.456206077516501e-15
"Vn_Z:pwr" -0.000000000000000e+00
"n_Z" 1.199999494865458e+00
"n_D1" 0.000000000000000e+00
"n_SD" 1.200000000000000e+00
"Vn_D1:n" -7.504789658416644e-14
"Vn_D1:p" 7.504789658416644e-14
"Vn_GND:n" -2.548656933988427e-10
"Vn_GND:p" 2.548656933988427e-10
"Vn_SD:n" 5.107104187880552e-13
"Vn_SD:p" -5.107104187880552e-13
"Vn_VDD:n" 2.544835061757052e-10
"Vn_VDD:p" -2.544835061757052e-10
"Vn_Z:n" 1.456206077516501e-15
"Vn_Z:p" -1.456206077516501e-15
"time" 2.730000000000000e-10
"Vn_D1:v" 0.000000000000000e+00
"Vn_D1:i" 7.521318453671575e-14
"Vn_D1:pwr" 0.000000000000000e+00
"Vn_GND:v" 0.000000000000000e+00
"Vn_GND:i" 2.548665329039659e-10
"Vn_GND:pwr" 0.000000000000000e+00
"Vn_SD:v" 0.000000000000000e+00
"Vn_SD:i" -5.105222261521683e-13
"Vn_SD:pwr" -0.000000000000000e+00
"Vn_VDD:v" 1.200000000000000e+00
"Vn_VDD:i" -2.544866712108607e-10
"Vn_VDD:pwr" -3.053840054530328e-10
"Vn_Z:v" 0.000000000000000e+00
"Vn_Z:i" 5.155034385179473e-16
"Vn_Z:pwr" 0.000000000000000e+00
"n_Z" 1.199999494849846e+00
"n_D1" 0.000000000000000e+00
"n_SD" 1.200000000000000e+00
"Vn_D1:n" -7.521318453671575e-14
"Vn_D1:p" 7.521318453671575e-14
"Vn_GND:n" -2.548665329039659e-10
"Vn_GND:p" 2.548665329039659e-10
"Vn_SD:n" 5.105222261521683e-13
"Vn_SD:p" -5.105222261521683e-13
"Vn_VDD:n" 2.544866712108607e-10
"Vn_VDD:p" -2.544866712108607e-10
"Vn_Z:n" -5.155034385179473e-16
"Vn_Z:p" 5.155034385179473e-16
"time" 5.850000000000002e-10
"Vn_D1:v" 0.000000000000000e+00
"Vn_D1:i" 7.514636685293321e-14
"Vn_D1:pwr" 0.000000000000000e+00
"Vn_GND:v" 0.000000000000000e+00
"Vn_GND:i" 2.548661559105880e-10
"Vn_GND:pwr" 0.000000000000000e+00
"Vn_SD:v" 0.000000000000000e+00
"Vn_SD:i" -5.105992228492733e-13
"Vn_SD:pwr" -0.000000000000000e+00
"Vn_VDD:v" 1.200000000000000e+00
"Vn_VDD:i" -2.544853217246863e-10
"Vn_VDD:pwr" -3.053823860696235e-10
"Vn_Z:v" 0.000000000000000e+00
"Vn_Z:i" -3.154333311851017e-16
"Vn_Z:pwr" -0.000000000000000e+00
"n_Z" 1.199999494856487e+00
"n_D1" 0.000000000000000e+00
"n_SD" 1.200000000000000e+00
"Vn_D1:n" -7.514636685293321e-14
"Vn_D1:p" 7.514636685293321e-14
"Vn_GND:n" -2.548661559105880e-10
"Vn_GND:p" 2.548661559105880e-10
"Vn_SD:n" 5.105992228492733e-13
"Vn_SD:p" -5.105992228492733e-13
"Vn_VDD:n" 2.544853217246863e-10
"Vn_VDD:p" -2.544853217246863e-10
"Vn_Z:n" 3.154333311851017e-16
"Vn_Z:p" -3.154333311851017e-16
"time" 1.209000000000000e-09
"Vn_D1:v" 0.000000000000000e+00
"Vn_D1:i" 7.519035674670189e-14
"Vn_D1:pwr" 0.000000000000000e+00
"Vn_GND:v" 0.000000000000000e+00
"Vn_GND:i" 2.548663639447959e-10
"Vn_GND:pwr" 0.000000000000000e+00
"Vn_SD:v" 0.000000000000000e+00
"Vn_SD:i" -5.105479472978830e-13
"Vn_SD:pwr" -0.000000000000000e+00
"Vn_VDD:v" 1.200000000000000e+00
"Vn_VDD:i" -2.544861861197029e-10
"Vn_VDD:pwr" -3.053834233436434e-10
"Vn_Z:v" 0.000000000000000e+00
"Vn_Z:i" 2.507543371840367e-16
"Vn_Z:pwr" 0.000000000000000e+00
"n_Z" 1.199999494852193e+00
"n_D1" 0.000000000000000e+00
"n_SD" 1.200000000000000e+00
"Vn_D1:n" -7.519035674670189e-14
"Vn_D1:p" 7.519035674670189e-14
"Vn_GND:n" -2.548663639447959e-10
"Vn_GND:p" 2.548663639447959e-10
"Vn_SD:n" 5.105479472978830e-13
"Vn_SD:p" -5.105479472978830e-13
"Vn_VDD:n" 2.544861861197029e-10
"Vn_VDD:p" -2.544861861197029e-10
"Vn_Z:n" -2.507543371840367e-16
"Vn_Z:p" 2.507543371840367e-16
"time" 1.989000000000000e-09
"Vn_D1:v" 0.000000000000000e+00
"Vn_D1:i" 7.515584932264896e-14
"Vn_D1:pwr" 0.000000000000000e+00
"Vn_GND:v" 0.000000000000000e+00
"Vn_GND:i" 2.548661208586199e-10
"Vn_GND:pwr" 0.000000000000000e+00
"Vn_SD:v" 0.000000000000000e+00
"Vn_SD:i" -5.105885629548272e-13
"Vn_SD:pwr" -0.000000000000000e+00
"Vn_VDD:v" 1.200000000000000e+00
"Vn_VDD:i" -2.544854162294336e-10
"Vn_VDD:pwr" -3.053824994753204e-10
"Vn_Z:v" 0.000000000000000e+00
"Vn_Z:i" -2.052985438754723e-16
"Vn_Z:pwr" -0.000000000000000e+00
"n_Z" 1.199999494855965e+00
"n_D1" 0.000000000000000e+00
"n_SD" 1.200000000000000e+00
"Vn_D1:n" -7.515584932264896e-14
"Vn_D1:p" 7.515584932264896e-14
"Vn_GND:n" -2.548661208586199e-10
"Vn_GND:p" 2.548661208586199e-10
"Vn_SD:n" 5.105885629548272e-13
"Vn_SD:p" -5.105885629548272e-13
"Vn_VDD:n" 2.544854162294336e-10
"Vn_VDD:p" -2.544854162294336e-10
"Vn_Z:n" 2.052985438754723e-16
"Vn_Z:p" -2.052985438754723e-16
"time" 2.769000000000001e-09
"Vn_D1:v" 0.000000000000000e+00
"Vn_D1:i" 7.518359933268308e-14
"Vn_D1:pwr" 0.000000000000000e+00
"Vn_GND:v" 0.000000000000000e+00
"Vn_GND:i" 2.548662387655691e-10
"Vn_GND:pwr" 0.000000000000000e+00
"Vn_SD:v" 0.000000000000000e+00
"Vn_SD:i" -5.105555213606177e-13
"Vn_SD:pwr" -0.000000000000000e+00
"Vn_VDD:v" 1.200000000000000e+00
"Vn_VDD:i" -2.544859638070927e-10
"Vn_VDD:pwr" -3.053831565685112e-10
"Vn_Z:v" 0.000000000000000e+00
"Vn_Z:i" 1.722622202926908e-16
"Vn_Z:pwr" 0.000000000000000e+00
"n_Z" 1.199999494853224e+00
"n_D1" 0.000000000000000e+00
"n_SD" 1.200000000000000e+00
"Vn_D1:n" -7.518359933268308e-14
"Vn_D1:p" 7.518359933268308e-14
"Vn_GND:n" -2.548662387655691e-10
"Vn_GND:p" 2.548662387655691e-10
"Vn_SD:n" 5.105555213606177e-13
"Vn_SD:p" -5.105555213606177e-13
"Vn_VDD:n" 2.544859638070927e-10
"Vn_VDD:p" -2.544859638070927e-10
"Vn_Z:n" -1.722622202926908e-16
"Vn_Z:p" 1.722622202926908e-16
"time" 3.000000000000000e-09
"Vn_D1:v" 0.000000000000000e+00
"Vn_D1:i" 7.516604358389264e-14
"Vn_D1:pwr" 0.000000000000000e+00
"Vn_GND:v" 0.000000000000000e+00
"Vn_GND:i" 2.548661130466600e-10
"Vn_GND:pwr" 0.000000000000000e+00
"Vn_SD:v" 0.000000000000000e+00
"Vn_SD:i" -5.105772044553005e-13
"Vn_SD:pwr" -0.000000000000000e+00
"Vn_VDD:v" 1.200000000000000e+00
"Vn_VDD:i" -2.544855552867189e-10
"Vn_VDD:pwr" -3.053826663440627e-10
"Vn_Z:v" 0.000000000000000e+00
"Vn_Z:i" -8.874538418435698e-17
"Vn_Z:pwr" -0.000000000000000e+00
"n_Z" 1.199999494855277e+00
"n_D1" 0.000000000000000e+00
"n_SD" 1.200000000000000e+00
"Vn_D1:n" -7.516604358389264e-14
"Vn_D1:p" 7.516604358389264e-14
"Vn_GND:n" -2.548661130466600e-10
"Vn_GND:p" 2.548661130466600e-10
"Vn_SD:n" 5.105772044553005e-13
"Vn_SD:p" -5.105772044553005e-13
"Vn_VDD:n" 2.544855552867189e-10
"Vn_VDD:p" -2.544855552867189e-10
"Vn_Z:n" 8.874538418435698e-17
"Vn_Z:p" -8.874538418435698e-17
"time" 3.010000000000000e-09
"Vn_D1:v" 0.000000000000000e+00
"Vn_D1:i" 7.516585076997054e-14
"Vn_D1:pwr" 0.000000000000000e+00
"Vn_GND:v" 0.000000000000000e+00
"Vn_GND:i" 2.548661218078125e-10
"Vn_GND:pwr" 0.000000000000000e+00
"Vn_SD:v" 0.000000000000000e+00
"Vn_SD:i" -5.105760079290621e-13
"Vn_SD:pwr" -0.000000000000000e+00
"Vn_VDD:v" 1.200000000000000e+00
"Vn_VDD:i" -2.544855776512305e-10
"Vn_VDD:pwr" -3.053826931814766e-10
"Vn_Z:v" 0.000000000000000e+00
"Vn_Z:i" -6.554629763012160e-17
"Vn_Z:pwr" -0.000000000000000e+00
"n_Z" 1.199999494855137e+00
"n_D1" 0.000000000000000e+00
"n_SD" 1.200000000000000e+00
"Vn_D1:n" -7.516585076997054e-14
"Vn_D1:p" 7.516585076997054e-14
"Vn_GND:n" -2.548661218078125e-10
"Vn_GND:p" 2.548661218078125e-10
"Vn_SD:n" 5.105760079290621e-13
"Vn_SD:p" -5.105760079290621e-13
"Vn_VDD:n" 2.544855776512305e-10
"Vn_VDD:p" -2.544855776512305e-10
"Vn_Z:n" 6.554629763012160e-17
"Vn_Z:p" -6.554629763012160e-17
"time" 3.030000000000000e-09
"Vn_D1:v" 0.000000000000000e+00
"Vn_D1:i" 7.516754159770206e-14
"Vn_D1:pwr" 0.000000000000000e+00
"Vn_GND:v" 0.000000000000000e+00
"Vn_GND:i" 2.548661309627348e-10
"Vn_GND:pwr" 0.000000000000000e+00
"Vn_SD:v" 0.000000000000000e+00
"Vn_SD:i" -5.105743464715436e-13
"Vn_SD:pwr" -0.000000000000000e+00
"Vn_VDD:v" 1.200000000000000e+00
"Vn_VDD:i" -2.544856135214517e-10
"Vn_VDD:pwr" -3.053827362257421e-10
"Vn_Z:v" 0.000000000000000e+00
"Vn_Z:i" -4.220394530811491e-17
"Vn_Z:pwr" -0.000000000000000e+00
"n_Z" 1.199999494854957e+00
"n_D1" 0.000000000000000e+00
"n_SD" 1.200000000000000e+00
"Vn_D1:n" -7.516754159770206e-14
"Vn_D1:p" 7.516754159770206e-14
"Vn_GND:n" -2.548661309627348e-10
"Vn_GND:p" 2.548661309627348e-10
"Vn_SD:n" 5.105743464715436e-13
"Vn_SD:p" -5.105743464715436e-13
"Vn_VDD:n" 2.544856135214517e-10
"Vn_VDD:p" -2.544856135214517e-10
"Vn_Z:n" 4.220394530811491e-17
"Vn_Z:p" -4.220394530811491e-17
"time" 3.070000000000001e-09
"Vn_D1:v" 0.000000000000000e+00
"Vn_D1:i" 7.517010244849729e-14
"Vn_D1:pwr" 0.000000000000000e+00
"Vn_GND:v" 0.000000000000000e+00
"Vn_GND:i" 2.548661413069188e-10
"Vn_GND:pwr" 0.000000000000000e+00
"Vn_SD:v" 0.000000000000000e+00
"Vn_SD:i" -5.105718076078945e-13
"Vn_SD:pwr" -0.000000000000000e+00
"Vn_VDD:v" 1.200000000000000e+00
"Vn_VDD:i" -2.544856617284629e-10
"Vn_VDD:pwr" -3.053827940741554e-10
"Vn_Z:v" 0.000000000000000e+00
"Vn_Z:i" -1.307507357093182e-17
"Vn_Z:pwr" -0.000000000000000e+00
"n_Z" 1.199999494854722e+00
"n_D1" 0.000000000000000e+00
"n_SD" 1.200000000000000e+00
"Vn_D1:n" -7.517010244849729e-14
"Vn_D1:p" 7.517010244849729e-14
"Vn_GND:n" -2.548661413069188e-10
"Vn_GND:p" 2.548661413069188e-10
"Vn_SD:n" 5.105718076078945e-13
"Vn_SD:p" -5.105718076078945e-13
"Vn_VDD:n" 2.544856617284629e-10
"Vn_VDD:p" -2.544856617284629e-10
"Vn_Z:n" 1.307507357093182e-17
"Vn_Z:p" -1.307507357093182e-17
"time" 3.150000000000003e-09
"Vn_D1:v" 0.000000000000000e+00
"Vn_D1:i" 7.517144599739388e-14
"Vn_D1:pwr" 0.000000000000000e+00
"Vn_GND:v" 0.000000000000000e+00
"Vn_GND:i" 2.548661434273366e-10
"Vn_GND:pwr" 0.000000000000000e+00
"Vn_SD:v" 0.000000000000000e+00
"Vn_SD:i" -5.105699088692867e-13
"Vn_SD:pwr" -0.000000000000000e+00
"Vn_VDD:v" 1.200000000000000e+00
"Vn_VDD:i" -2.544856723203924e-10
"Vn_VDD:pwr" -3.053828067844709e-10
"Vn_Z:v" 0.000000000000000e+00
"Vn_Z:i" 3.414141188802565e-18
"Vn_Z:pwr" 0.000000000000000e+00
"n_Z" 1.199999494854640e+00
"n_D1" 0.000000000000000e+00
"n_SD" 1.200000000000000e+00
"Vn_D1:n" -7.517144599739388e-14
"Vn_D1:p" 7.517144599739388e-14
"Vn_GND:n" -2.548661434273366e-10
"Vn_GND:p" 2.548661434273366e-10
"Vn_SD:n" 5.105699088692867e-13
"Vn_SD:p" -5.105699088692867e-13
"Vn_VDD:n" 2.544856723203924e-10
"Vn_VDD:p" -2.544856723203924e-10
"Vn_Z:n" -3.414141188802565e-18
"Vn_Z:p" 3.414141188802565e-18
"time" 3.310000000000005e-09
"Vn_D1:v" 0.000000000000000e+00
"Vn_D1:i" 7.517123319832832e-14
"Vn_D1:pwr" 0.000000000000000e+00
"Vn_GND:v" 0.000000000000000e+00
"Vn_GND:i" 2.548661332612431e-10
"Vn_GND:pwr" 0.000000000000000e+00
"Vn_SD:v" 0.000000000000000e+00
"Vn_SD:i" -5.105705216593234e-13
"Vn_SD:pwr" -0.000000000000000e+00
"Vn_VDD:v" 1.200000000000000e+00
"Vn_VDD:i" -2.544856683173941e-10
"Vn_VDD:pwr" -3.053828019808729e-10
"Vn_Z:v" 0.000000000000000e+00
"Vn_Z:i" -7.077341263040605e-19
"Vn_Z:pwr" -0.000000000000000e+00
"n_Z" 1.199999494854686e+00
"n_D1" 0.000000000000000e+00
"n_SD" 1.200000000000000e+00
"Vn_D1:n" -7.517123319832832e-14
"Vn_D1:p" 7.517123319832832e-14
"Vn_GND:n" -2.548661332612431e-10
"Vn_GND:p" 2.548661332612431e-10
"Vn_SD:n" 5.105705216593234e-13
"Vn_SD:p" -5.105705216593234e-13
"Vn_VDD:n" 2.544856683173941e-10
"Vn_VDD:p" -2.544856683173941e-10
"Vn_Z:n" 7.077341263040605e-19
"Vn_Z:p" -7.077341263040605e-19
"time" 3.630000000000011e-09
"Vn_D1:v" 0.000000000000000e+00
"Vn_D1:i" 7.517137380666051e-14
"Vn_D1:pwr" 0.000000000000000e+00
"Vn_GND:v" 0.000000000000000e+00
"Vn_GND:i" 2.548661147778385e-10
"Vn_GND:pwr" 0.000000000000000e+00
"Vn_SD:v" 0.000000000000000e+00
"Vn_SD:i" -5.105700378924678e-13
"Vn_SD:pwr" -0.000000000000000e+00
"Vn_VDD:v" 1.200000000000000e+00
"Vn_VDD:i" -2.544856455457628e-10
"Vn_VDD:pwr" -3.053827746549153e-10
"Vn_Z:v" 0.000000000000000e+00
"Vn_Z:i" 3.232061955710557e-18
"Vn_Z:pwr" 0.000000000000000e+00
"n_Z" 1.199999494854773e+00
"n_D1" 0.000000000000000e+00
"n_SD" 1.200000000000000e+00
"Vn_D1:n" -7.517137380666051e-14
"Vn_D1:p" 7.517137380666051e-14
"Vn_GND:n" -2.548661147778385e-10
"Vn_GND:p" 2.548661147778385e-10
"Vn_SD:n" 5.105700378924678e-13
"Vn_SD:p" -5.105700378924678e-13
"Vn_VDD:n" 2.544856455457628e-10
"Vn_VDD:p" -2.544856455457628e-10
"Vn_Z:n" -3.232061955710557e-18
"Vn_Z:p" 3.232061955710557e-18
"time" 4.270000000000022e-09
"Vn_D1:v" 0.000000000000000e+00
"Vn_D1:i" 7.517127847910481e-14
"Vn_D1:pwr" 0.000000000000000e+00
"Vn_GND:v" 0.000000000000000e+00
"Vn_GND:i" 2.548660777637893e-10
"Vn_GND:pwr" 0.000000000000000e+00
"Vn_SD:v" 0.000000000000000e+00
"Vn_SD:i" -5.105704394938539e-13
"Vn_SD:pwr" -0.000000000000000e+00
"Vn_VDD:v" 1.200000000000000e+00
"Vn_VDD:i" -2.544856138872270e-10
"Vn_VDD:pwr" -3.053827366646724e-10
"Vn_Z:v" 0.000000000000000e+00
"Vn_Z:i" -1.130148511949392e-18
"Vn_Z:pwr" -0.000000000000000e+00
"n_Z" 1.199999494854916e+00
"n_D1" 0.000000000000000e+00
"n_SD" 1.200000000000000e+00
"Vn_D1:n" -7.517127847910481e-14
"Vn_D1:p" 7.517127847910481e-14
"Vn_GND:n" -2.548660777637893e-10
"Vn_GND:p" 2.548660777637893e-10
"Vn_SD:n" 5.105704394938539e-13
"Vn_SD:p" -5.105704394938539e-13
"Vn_VDD:n" 2.544856138872270e-10
"Vn_VDD:p" -2.544856138872270e-10
"Vn_Z:n" 1.130148511949392e-18
"Vn_Z:p" -1.130148511949392e-18
"time" 5.050000000000022e-09
"Vn_D1:v" 0.000000000000000e+00
"Vn_D1:i" 7.517123095365535e-14
"Vn_D1:pwr" 0.000000000000000e+00
"Vn_GND:v" 0.000000000000000e+00
"Vn_GND:i" 2.548660312200932e-10
"Vn_GND:pwr" 0.000000000000000e+00
"Vn_SD:v" 0.000000000000000e+00
"Vn_SD:i" -5.105702287397688e-13
"Vn_SD:pwr" -0.000000000000000e+00
"Vn_VDD:v" 1.200000000000000e+00
"Vn_VDD:i" -2.544855648352037e-10
"Vn_VDD:pwr" -3.053826778022444e-10
"Vn_Z:v" 0.000000000000000e+00
"Vn_Z:i" 3.614241585078240e-18
"Vn_Z:pwr" 0.000000000000000e+00
"n_Z" 1.199999494855122e+00
"n_D1" 0.000000000000000e+00
"n_SD" 1.200000000000000e+00
"Vn_D1:n" -7.517123095365535e-14
"Vn_D1:p" 7.517123095365535e-14
"Vn_GND:n" -2.548660312200932e-10
"Vn_GND:p" 2.548660312200932e-10
"Vn_SD:n" 5.105702287397688e-13
"Vn_SD:p" -5.105702287397688e-13
"Vn_VDD:n" 2.544855648352037e-10
"Vn_VDD:p" -2.544855648352037e-10
"Vn_Z:n" -3.614241585078240e-18
"Vn_Z:p" 3.614241585078240e-18
"time" 5.830000000000022e-09
"Vn_D1:v" 0.000000000000000e+00
"Vn_D1:i" 7.517126232155592e-14
"Vn_D1:pwr" 0.000000000000000e+00
"Vn_GND:v" 0.000000000000000e+00
"Vn_GND:i" 2.548659873082065e-10
"Vn_GND:pwr" 0.000000000000000e+00
"Vn_SD:v" 0.000000000000000e+00
"Vn_SD:i" -5.105704449810158e-13
"Vn_SD:pwr" -0.000000000000000e+00
"Vn_VDD:v" 1.200000000000000e+00
"Vn_VDD:i" -2.544855233415160e-10
"Vn_VDD:pwr" -3.053826280098192e-10
"Vn_Z:v" 0.000000000000000e+00
"Vn_Z:i" -1.282902302756083e-18
"Vn_Z:pwr" -0.000000000000000e+00
"n_Z" 1.199999494855315e+00
"n_D1" 0.000000000000000e+00
"n_SD" 1.200000000000000e+00
"Vn_D1:n" -7.517126232155592e-14
"Vn_D1:p" 7.517126232155592e-14
"Vn_GND:n" -2.548659873082065e-10
"Vn_GND:p" 2.548659873082065e-10
"Vn_SD:n" 5.105704449810158e-13
"Vn_SD:p" -5.105704449810158e-13
"Vn_VDD:n" 2.544855233415160e-10
"Vn_VDD:p" -2.544855233415160e-10
"Vn_Z:n" 1.282902302756083e-18
"Vn_Z:p" -1.282902302756083e-18
"time" 6.010000000000000e-09
"Vn_D1:v" 0.000000000000000e+00
"Vn_D1:i" 7.517139259287129e-14
"Vn_D1:pwr" 0.000000000000000e+00
"Vn_GND:v" 0.000000000000000e+00
"Vn_GND:i" 2.548659766326411e-10
"Vn_GND:pwr" 0.000000000000000e+00
"Vn_SD:v" 0.000000000000000e+00
"Vn_SD:i" -5.105700783719295e-13
"Vn_SD:pwr" -0.000000000000000e+00
"Vn_VDD:v" 1.200000000000000e+00
"Vn_VDD:i" -2.544855122256071e-10
"Vn_VDD:pwr" -3.053826146707285e-10
"Vn_Z:v" 0.000000000000000e+00
"Vn_Z:i" 3.222542369988570e-18
"Vn_Z:pwr" 0.000000000000000e+00
"n_Z" 1.199999494855353e+00
"n_D1" 0.000000000000000e+00
"n_SD" 1.200000000000000e+00
"Vn_D1:n" -7.517139259287129e-14
"Vn_D1:p" 7.517139259287129e-14
"Vn_GND:n" -2.548659766326411e-10
"Vn_GND:p" 2.548659766326411e-10
"Vn_SD:n" 5.105700783719295e-13
"Vn_SD:p" -5.105700783719295e-13
"Vn_VDD:n" 2.544855122256071e-10
"Vn_VDD:p" -2.544855122256071e-10
"Vn_Z:n" -3.222542369988570e-18
"Vn_Z:p" 3.222542369988570e-18
"time" 6.019999795400000e-09
"Vn_D1:v" 0.000000000000000e+00
"Vn_D1:i" 7.517127632511511e-14
"Vn_D1:pwr" 0.000000000000000e+00
"Vn_GND:v" 0.000000000000000e+00
"Vn_GND:i" 2.548659763540103e-10
"Vn_GND:pwr" 0.000000000000000e+00
"Vn_SD:v" 0.000000000000000e+00
"Vn_SD:i" -5.105701080271240e-13
"Vn_SD:pwr" -0.000000000000000e+00
"Vn_VDD:v" 1.200000000000000e+00
"Vn_VDD:i" -2.544855109797181e-10
"Vn_VDD:pwr" -3.053826131756617e-10
"Vn_Z:v" 0.000000000000000e+00
"Vn_Z:i" 1.964663574004513e-18
"Vn_Z:pwr" 0.000000000000000e+00
"n_Z" 1.199999494855357e+00
"n_D1" 0.000000000000000e+00
"n_SD" 1.200000000000000e+00
"Vn_D1:n" -7.517127632511511e-14
"Vn_D1:p" 7.517127632511511e-14
"Vn_GND:n" -2.548659763540103e-10
"Vn_GND:p" 2.548659763540103e-10
"Vn_SD:n" 5.105701080271240e-13
"Vn_SD:p" -5.105701080271240e-13
"Vn_VDD:n" 2.544855109797181e-10
"Vn_VDD:p" -2.544855109797181e-10
"Vn_Z:n" -1.964663574004513e-18
"Vn_Z:p" 1.964663574004513e-18
"time" 6.020000000000000e-09
"Vn_D1:v" 0.000000000000000e+00
"Vn_D1:i" -1.348174194060169e-06
"Vn_D1:pwr" -0.000000000000000e+00
"Vn_GND:v" 0.000000000000000e+00
"Vn_GND:i" 2.421593908218845e-07
"Vn_GND:pwr" 0.000000000000000e+00
"Vn_SD:v" 0.000000000000000e+00
"Vn_SD:i" 5.440673673337412e-11
"Vn_SD:pwr" 0.000000000000000e+00
"Vn_VDD:v" 1.200000000000000e+00
"Vn_VDD:i" 1.105960117167171e-06
"Vn_VDD:pwr" 1.327152140600605e-06
"Vn_Z:v" 0.000000000000000e+00
"Vn_Z:i" 2.245034826512036e-13
"Vn_Z:pwr" 0.000000000000000e+00
"n_Z" 1.199999494855367e+00
"n_D1" 2.456580613633633e-07
"n_SD" 1.200000000000000e+00
"Vn_D1:n" 1.348174194060169e-06
"Vn_D1:p" -1.348174194060169e-06
"Vn_GND:n" -2.421593908218845e-07
"Vn_GND:p" 2.421593908218845e-07
"Vn_SD:n" -5.440673673337412e-11
"Vn_SD:p" 5.440673673337412e-11
"Vn_VDD:n" -1.105960117167171e-06
"Vn_VDD:p" 1.105960117167171e-06
"Vn_Z:n" -2.245034826512036e-13
"Vn_Z:p" 2.245034826512036e-13
"time" 6.020000409200001e-09
"Vn_D1:v" 0.000000000000000e+00
"Vn_D1:i" -1.349430106780316e-06
"Vn_D1:pwr" -0.000000000000000e+00
"Vn_GND:v" 0.000000000000000e+00
"Vn_GND:i" 2.423764591988491e-07
"Vn_GND:pwr" 0.000000000000000e+00
"Vn_SD:v" 0.000000000000000e+00
"Vn_SD:i" 1.639629320390627e-10
"Vn_SD:pwr" 0.000000000000000e+00
"Vn_VDD:v" 1.200000000000000e+00
"Vn_VDD:i" 1.106888069859559e-06
"Vn_VDD:pwr" 1.328265683831471e-06
"Vn_Z:v" 0.000000000000000e+00
"Vn_Z:i" 1.560319143850740e-12
"Vn_Z:pwr" 0.000000000000000e+00
"n_Z" 1.199999494855503e+00
"n_D1" 7.369741840900898e-07
"n_SD" 1.200000000000000e+00
"Vn_D1:n" 1.349430106780316e-06
"Vn_D1:p" -1.349430106780316e-06
"Vn_GND:n" -2.423764591988491e-07
"Vn_GND:p" 2.423764591988491e-07
"Vn_SD:n" -1.639629320390627e-10
"Vn_SD:p" 1.639629320390627e-10
"Vn_VDD:n" -1.106888069859559e-06
"Vn_VDD:p" 1.106888069859559e-06
"Vn_Z:n" -1.560319143850740e-12
"Vn_Z:p" 1.560319143850740e-12
"time" 6.020001227600002e-09
"Vn_D1:v" 0.000000000000000e+00
"Vn_D1:i" -1.351934667426686e-06
"Vn_D1:pwr" -0.000000000000000e+00
"Vn_GND:v" 0.000000000000000e+00
"Vn_GND:i" 2.428094172832791e-07
"Vn_GND:pwr" 0.000000000000000e+00
"Vn_SD:v" 0.000000000000000e+00
"Vn_SD:i" 3.825239987503456e-10
"Vn_SD:pwr" 0.000000000000000e+00
"Vn_VDD:v" 1.200000000000000e+00
"Vn_VDD:i" 1.108736690355820e-06
"Vn_VDD:pwr" 1.330484028426984e-06
"Vn_Z:v" 0.000000000000000e+00
"Vn_Z:i" 5.983391105623037e-12
"Vn_Z:pwr" 0.000000000000000e+00
"n_Z" 1.199999494856159e+00
"n_D1" 1.719606429543543e-06
"n_SD" 1.200000000000000e+00
"Vn_D1:n" 1.351934667426686e-06
"Vn_D1:p" -1.351934667426686e-06
"Vn_GND:n" -2.428094172832791e-07
"Vn_GND:p" 2.428094172832791e-07
"Vn_SD:n" -3.825239987503456e-10
"Vn_SD:p" 3.825239987503456e-10
"Vn_VDD:n" -1.108736690355820e-06
"Vn_VDD:p" 1.108736690355820e-06
"Vn_Z:n" -5.983391105623037e-12
"Vn_Z:p" 5.983391105623037e-12
"time" 6.020002864400004e-09
"Vn_D1:v" 0.000000000000000e+00
"Vn_D1:i" -1.356900226531271e-06
"Vn_D1:pwr" -0.000000000000000e+00
"Vn_GND:v" 0.000000000000000e+00
"Vn_GND:i" 2.436683885297950e-07
"Vn_GND:pwr" 0.000000000000000e+00
"Vn_SD:v" 0.000000000000000e+00
"Vn_SD:i" 8.163272573831753e-10
"Vn_SD:pwr" 0.000000000000000e+00
"Vn_VDD:v" 1.200000000000000e+00
"Vn_VDD:i" 1.112390373467371e-06
"Vn_VDD:pwr" 1.334868448160845e-06
"Vn_Z:v" 0.000000000000000e+00
"Vn_Z:i" 2.507790263909398e-11
"Vn_Z:pwr" 0.000000000000000e+00
"n_Z" 1.199999494861568e+00
"n_D1" 3.684870920450449e-06
"n_SD" 1.200000000000000e+00
"Vn_D1:n" 1.356900226531271e-06
"Vn_D1:p" -1.356900226531271e-06
"Vn_GND:n" -2.436683885297950e-07
"Vn_GND:p" 2.436683885297950e-07
"Vn_SD:n" -8.163272573831753e-10
"Vn_SD:p" 8.163272573831753e-10
"Vn_VDD:n" -1.112390373467371e-06
"Vn_VDD:p" 1.112390373467371e-06
"Vn_Z:n" -2.507790263909398e-11
"Vn_Z:p" 2.507790263909398e-11
"time" 6.020006138000008e-09
"Vn_D1:v" 0.000000000000000e+00
"Vn_D1:i" -1.366660575675219e-06
"Vn_D1:pwr" -0.000000000000000e+00
"Vn_GND:v" 0.000000000000000e+00
"Vn_GND:i" 2.453587509002661e-07
"Vn_GND:pwr" 0.000000000000000e+00
"Vn_SD:v" 0.000000000000000e+00
"Vn_SD:i" 1.670815099476951e-09
"Vn_SD:pwr" 0.000000000000000e+00
"Vn_VDD:v" 1.200000000000000e+00
"Vn_VDD:i" 1.119529191407003e-06
"Vn_VDD:pwr" 1.343435029688403e-06
"Vn_Z:v" 0.000000000000000e+00
"Vn_Z:i" 1.017673250914626e-10
"Vn_Z:pwr" 0.000000000000000e+00
"n_Z" 1.199999494905743e+00
"n_D1" 7.615399902264261e-06
"n_SD" 1.200000000000000e+00
"Vn_D1:n" 1.366660575675219e-06
"Vn_D1:p" -1.366660575675219e-06
"Vn_GND:n" -2.453587509002661e-07
"Vn_GND:p" 2.453587509002661e-07
"Vn_SD:n" -1.670815099476951e-09
"Vn_SD:p" 1.670815099476951e-09
"Vn_VDD:n" -1.119529191407003e-06
"Vn_VDD:p" 1.119529191407003e-06
"Vn_Z:n" -1.017673250914626e-10
"Vn_Z:p" 1.017673250914626e-10
"time" 6.020012685200016e-09
"Vn_D1:v" 0.000000000000000e+00
"Vn_D1:i" -1.385521109264065e-06
"Vn_D1:pwr" -0.000000000000000e+00
"Vn_GND:v" 0.000000000000000e+00
"Vn_GND:i" 2.486317329352989e-07
"Vn_GND:pwr" 0.000000000000000e+00
"Vn_SD:v" 0.000000000000000e+00
"Vn_SD:i" 3.328359106458126e-09
"Vn_SD:pwr" 0.000000000000000e+00
"Vn_VDD:v" 1.200000000000000e+00
"Vn_VDD:i" 1.133169927647561e-06
"Vn_VDD:pwr" 1.359803913177073e-06
"Vn_Z:v" 0.000000000000000e+00
"Vn_Z:i" 3.910305825196036e-10
"Vn_Z:pwr" 0.000000000000000e+00
"n_Z" 1.199999495248982e+00
"n_D1" 1.547645786589189e-05
"n_SD" 1.200000000000000e+00
"Vn_D1:n" 1.385521109264065e-06
"Vn_D1:p" -1.385521109264065e-06
"Vn_GND:n" -2.486317329352989e-07
"Vn_GND:p" 2.486317329352989e-07
"Vn_SD:n" -3.328359106458126e-09
"Vn_SD:p" 3.328359106458126e-09
"Vn_VDD:n" -1.133169927647561e-06
"Vn_VDD:p" 1.133169927647561e-06
"Vn_Z:n" -3.910305825196036e-10
"Vn_Z:p" 3.910305825196036e-10
"time" 6.020025779600032e-09
"Vn_D1:v" 0.000000000000000e+00
"Vn_D1:i" -1.413780301377782e-06
"Vn_D1:pwr" -0.000000000000000e+00
"Vn_GND:v" 0.000000000000000e+00
"Vn_GND:i" 2.547791447405931e-07
"Vn_GND:pwr" 0.000000000000000e+00
"Vn_SD:v" 0.000000000000000e+00
"Vn_SD:i" 6.447435864859909e-09
"Vn_SD:pwr" 0.000000000000000e+00
"Vn_VDD:v" 1.200000000000000e+00
"Vn_VDD:i" 1.151158544426607e-06
"Vn_VDD:pwr" 1.381390253311928e-06
"Vn_Z:v" 0.000000000000000e+00
"Vn_Z:i" 1.395125531664705e-09
"Vn_Z:pwr" 0.000000000000000e+00
"n_Z" 1.199999497737135e+00
"n_D1" 3.119857379314713e-05
"n_SD" 1.200000000000000e+00
"Vn_D1:n" 1.413780301377782e-06
"Vn_D1:p" -1.413780301377782e-06
"Vn_GND:n" -2.547791447405931e-07
"Vn_GND:p" 2.547791447405931e-07
"Vn_SD:n" -6.447435864859909e-09
"Vn_SD:p" 6.447435864859909e-09
"Vn_VDD:n" -1.151158544426607e-06
"Vn_VDD:p" 1.151158544426607e-06
"Vn_Z:n" -1.395125531664705e-09
"Vn_Z:p" 1.395125531664705e-09
"time" 6.020051968400065e-09
"Vn_D1:v" 0.000000000000000e+00
"Vn_D1:i" -1.463281203831991e-06
"Vn_D1:pwr" -0.000000000000000e+00
"Vn_GND:v" 0.000000000000000e+00
"Vn_GND:i" 2.656549539008398e-07
"Vn_GND:pwr" 0.000000000000000e+00
"Vn_SD:v" 0.000000000000000e+00
"Vn_SD:i" 1.198151961264632e-08
"Vn_SD:pwr" 0.000000000000000e+00
"Vn_VDD:v" 1.200000000000000e+00
"Vn_VDD:i" 1.181189454033887e-06
"Vn_VDD:pwr" 1.417427344840664e-06
"Vn_Z:v" 0.000000000000000e+00
"Vn_Z:i" 4.455217265697083e-09
"Vn_Z:pwr" 0.000000000000000e+00
"n_Z" 1.199999514036439e+00
"n_D1" 6.264280564765764e-05
"n_SD" 1.200000000000000e+00
"Vn_D1:n" 1.463281203831991e-06
"Vn_D1:p" -1.463281203831991e-06
"Vn_GND:n" -2.656549539008398e-07
"Vn_GND:p" 2.656549539008398e-07
"Vn_SD:n" -1.198151961264632e-08
"Vn_SD:p" 1.198151961264632e-08
"Vn_VDD:n" -1.181189454033887e-06
"Vn_VDD:p" 1.181189454033887e-06
"Vn_Z:n" -4.455217265697083e-09
"Vn_Z:p" 4.455217265697083e-09
"time" 6.020104346000130e-09
"Vn_D1:v" 0.000000000000000e+00
"Vn_D1:i" -1.554580275851028e-06
"Vn_D1:pwr" -0.000000000000000e+00
"Vn_GND:v" 0.000000000000000e+00
"Vn_GND:i" 2.826745702572296e-07
"Vn_GND:pwr" 0.000000000000000e+00
"Vn_SD:v" 0.000000000000000e+00
"Vn_SD:i" 2.075732254248837e-08