HEADER
"PSFversion" "1.00"
"simulator" "spectre"
"version" "10.1.1.164.isr11"
"date" "3:01:57 PM, Fri Oct 17, 2014"
"design" "* Spectre Timing Acquisition"
"analysis type" "tran"
"analysis name" "transient1-028_transient1"
"analysis description" "Transient Analysis `transient1-028_transient1': time = (0 s -> 39 ns)"
"xVecSorted" "ascending"
"tolerance.relative" 0.00100000
"start" 0.00000
"outputstart" 0.00000
"stop" 3.90000e-08
"step" 3.90000e-11
"maxstep" 7.80000e-10
"ic" "all"
"useprevic" "no"
"skipdc" "no"
"reltol" 0.00100000
"abstol(V)" 1.00000e-06
"abstol(I)" 1.00000e-12
"temp" 25.0000
"tnom" 27.0000
"tempeffects" "all"
"errpreset" "moderate"
"method" "traponly"
"lteratio" 3.50000
"relref" "sigglobal"
"cmin" 0.00000
"gmin" 1.00000e-12
TYPE
"sweep" FLOAT DOUBLE PROP(
"key" "sweep"
)
"Tau" FLOAT DOUBLE PROP(
"units" "N*m"
"key" "node"
"tolerance" 1.00000e-06
)
"Alpha" FLOAT DOUBLE PROP(
"units" "rads/s^2"
"key" "node"
"tolerance" 1.00000e-06
)
"Omega" FLOAT DOUBLE PROP(
"units" "rads/s"
"key" "node"
"tolerance" 1.00000e-06
)
"Theta" FLOAT DOUBLE PROP(
"units" "rads"
"key" "node"
"tolerance" 1.00000e-06
)
"F" FLOAT DOUBLE PROP(
"units" "N"
"key" "node"
"tolerance" 1.00000e-06
)
"Imp" FLOAT DOUBLE PROP(
"units" "m/s^3"
"key" "node"
"tolerance" 1.00000e-06
)
"Acc" FLOAT DOUBLE PROP(
"units" "m/s^2"
"key" "node"
"tolerance" 1.00000e-06
)
"Vel" FLOAT DOUBLE PROP(
"units" "m/s"
"key" "node"
"tolerance" 1.00000e-06
)
"Pos" FLOAT DOUBLE PROP(
"units" "m"
"key" "node"
"tolerance" 1.00000e-06
)
"Phi" FLOAT DOUBLE PROP(
"units" "Wb"
"key" "node"
"tolerance" 1.00000e-09
)
"Q" FLOAT DOUBLE PROP(
"units" "coul"
"key" "node"
"tolerance" 1.00000e-14
)
"V" FLOAT DOUBLE PROP(
"units" "V"
"key" "node"
"tolerance" 1.00000e-06
)
"I" FLOAT DOUBLE PROP(
"units" "A"
"key" "branch"
"tolerance" 1.00000e-12
)
"MMF" FLOAT DOUBLE PROP(
"units" "A*turn"
"key" "node"
"tolerance" 1.00000e-12
)
"Wb" FLOAT DOUBLE PROP(
"units" "Wb"
"key" "node"
"tolerance" 1.00000e-09
)
"Temp" FLOAT DOUBLE PROP(
"units" "C"
"key" "node"
"tolerance" 0.000100000
)
"Pwr" FLOAT DOUBLE PROP(
"units" "W"
"key" "node"
"tolerance" 1.00000e-09
)
"U" FLOAT DOUBLE PROP(
"units" ""
"key" "node"
"tolerance" 1.00000e-06
)
"V/Sec" FLOAT DOUBLE PROP(
"units" "V/s"
"key" "node"
"tolerance" 0.000100000
)
"I/Sec" FLOAT DOUBLE PROP(
"units" "A/s"
"key" "node"
"tolerance" 1.00000e-06
)
"1/Sec" FLOAT DOUBLE PROP(
"units" "1/s"
"key" "node"
"tolerance" 0.000100000
)
"HOD" FLOAT DOUBLE PROP(
"units" ""
"key" "node"
"tolerance" 0.0100000
)
"A" FLOAT DOUBLE PROP(
"key" "inst"
)
"W" FLOAT DOUBLE PROP(
"key" "inst"
)
SWEEP
"time" "sweep" PROP(
"sweep_direction" 0
"units" "s"
"plot" 0
"grid" 1
)
TRACE
"Vn_D1:v" "V" PROP(
"units" "V"
)
"Vn_D1:i" "A" PROP(
"units" "A"
)
"Vn_D1:pwr" "W" PROP(
"units" "W"
)
"Vn_GND:v" "V" PROP(
"units" "V"
)
"Vn_GND:i" "A" PROP(
"units" "A"
)
"Vn_GND:pwr" "W" PROP(
"units" "W"
)
"Vn_SD:v" "V" PROP(
"units" "V"
)
"Vn_SD:i" "A" PROP(
"units" "A"
)
"Vn_SD:pwr" "W" PROP(
"units" "W"
)
"Vn_VDD:v" "V" PROP(
"units" "V"
)
"Vn_VDD:i" "A" PROP(
"units" "A"
)
"Vn_VDD:pwr" "W" PROP(
"units" "W"
)
"Vn_Z:v" "V" PROP(
"units" "V"
)
"Vn_Z:i" "A" PROP(
"units" "A"
)
"Vn_Z:pwr" "W" PROP(
"units" "W"
)
"n_Z" "V"
"n_D1" "V"
"n_SD" "V"
"Vn_D1:n" "I"
"Vn_D1:p" "I"
"Vn_GND:n" "I"
"Vn_GND:p" "I"
"Vn_SD:n" "I"
"Vn_SD:p" "I"
"Vn_VDD:n" "I"
"Vn_VDD:p" "I"
"Vn_Z:n" "I"
"Vn_Z:p" "I"
VALUE
"time" 0.000000000000000e+00
"Vn_D1:v" 0.000000000000000e+00
"Vn_D1:i" 7.517119452868265e-14
"Vn_D1:pwr" 0.000000000000000e+00
"Vn_GND:v" 0.000000000000000e+00
"Vn_GND:i" 2.548493107913156e-10
"Vn_GND:pwr" 0.000000000000000e+00
"Vn_SD:v" 0.000000000000000e+00
"Vn_SD:i" -5.105704018311278e-13
"Vn_SD:pwr" -0.000000000000000e+00
"Vn_VDD:v" 1.200000000000000e+00
"Vn_VDD:i" -2.544688430803594e-10
"Vn_VDD:pwr" -3.053626116964313e-10
"Vn_Z:v" 0.000000000000000e+00
"Vn_Z:i" 0.000000000000000e+00
"Vn_Z:pwr" 0.000000000000000e+00
"n_Z" 1.199999494927445e+00
"n_D1" 0.000000000000000e+00
"n_SD" 1.200000000000000e+00
"Vn_D1:n" -7.517119452868265e-14
"Vn_D1:p" 7.517119452868265e-14
"Vn_GND:n" -2.548493107913156e-10
"Vn_GND:p" 2.548493107913156e-10
"Vn_SD:n" 5.105704018311278e-13
"Vn_SD:p" -5.105704018311278e-13
"Vn_VDD:n" 2.544688430803594e-10
"Vn_VDD:p" -2.544688430803594e-10
"Vn_Z:n" 0.000000000000000e+00
"Vn_Z:p" 0.000000000000000e+00
"time" 3.900000000000000e-11
"Vn_D1:v" 0.000000000000000e+00
"Vn_D1:i" 7.486143200859621e-14
"Vn_D1:pwr" 0.000000000000000e+00
"Vn_GND:v" 0.000000000000000e+00
"Vn_GND:i" 2.548643393155626e-10
"Vn_GND:pwr" 0.000000000000000e+00
"Vn_SD:v" 0.000000000000000e+00
"Vn_SD:i" -5.109604241365908e-13
"Vn_SD:pwr" -0.000000000000000e+00
"Vn_VDD:v" 1.200000000000000e+00
"Vn_VDD:i" -2.544783908777520e-10
"Vn_VDD:pwr" -3.053740690533023e-10
"Vn_Z:v" 0.000000000000000e+00
"Vn_Z:i" -4.780941343500643e-15
"Vn_Z:pwr" -0.000000000000000e+00
"n_Z" 1.199999494890153e+00
"n_D1" 0.000000000000000e+00
"n_SD" 1.200000000000000e+00
"Vn_D1:n" -7.486143200859621e-14
"Vn_D1:p" 7.486143200859621e-14
"Vn_GND:n" -2.548643393155626e-10
"Vn_GND:p" 2.548643393155626e-10
"Vn_SD:n" 5.109604241365908e-13
"Vn_SD:p" -5.109604241365908e-13
"Vn_VDD:n" 2.544783908777520e-10
"Vn_VDD:p" -2.544783908777520e-10
"Vn_Z:n" 4.780941343500643e-15
"Vn_Z:p" -4.780941343500643e-15
"time" 1.170000000000000e-10
"Vn_D1:v" 0.000000000000000e+00
"Vn_D1:i" 7.504752835409825e-14
"Vn_D1:pwr" 0.000000000000000e+00
"Vn_GND:v" 0.000000000000000e+00
"Vn_GND:i" 2.548656910685889e-10
"Vn_GND:pwr" 0.000000000000000e+00
"Vn_SD:v" 0.000000000000000e+00
"Vn_SD:i" -5.107113539126134e-13
"Vn_SD:pwr" -0.000000000000000e+00
"Vn_VDD:v" 1.200000000000000e+00
"Vn_VDD:i" -2.544834008476644e-10
"Vn_VDD:pwr" -3.053800810171973e-10
"Vn_Z:v" 0.000000000000000e+00
"Vn_Z:i" -1.557891417495126e-15
"Vn_Z:pwr" -0.000000000000000e+00
"n_Z" 1.199999494865850e+00
"n_D1" 0.000000000000000e+00
"n_SD" 1.200000000000000e+00
"Vn_D1:n" -7.504752835409825e-14
"Vn_D1:p" 7.504752835409825e-14
"Vn_GND:n" -2.548656910685889e-10
"Vn_GND:p" 2.548656910685889e-10
"Vn_SD:n" 5.107113539126134e-13
"Vn_SD:p" -5.107113539126134e-13
"Vn_VDD:n" 2.544834008476644e-10
"Vn_VDD:p" -2.544834008476644e-10
"Vn_Z:n" 1.557891417495126e-15
"Vn_Z:p" -1.557891417495126e-15
"time" 2.730000000000000e-10
"Vn_D1:v" 0.000000000000000e+00
"Vn_D1:i" 7.521177653162684e-14
"Vn_D1:pwr" 0.000000000000000e+00
"Vn_GND:v" 0.000000000000000e+00
"Vn_GND:i" 2.548665260027349e-10
"Vn_GND:pwr" 0.000000000000000e+00
"Vn_SD:v" 0.000000000000000e+00
"Vn_SD:i" -5.105237378650318e-13
"Vn_SD:pwr" -0.000000000000000e+00
"Vn_VDD:v" 1.200000000000000e+00
"Vn_VDD:i" -2.544866820529303e-10
"Vn_VDD:pwr" -3.053840184635163e-10
"Vn_Z:v" 0.000000000000000e+00
"Vn_Z:i" 5.317787007141372e-16
"Vn_Z:pwr" 0.000000000000000e+00
"n_Z" 1.199999494849843e+00
"n_D1" 0.000000000000000e+00
"n_SD" 1.200000000000000e+00
"Vn_D1:n" -7.521177653162684e-14
"Vn_D1:p" 7.521177653162684e-14
"Vn_GND:n" -2.548665260027349e-10
"Vn_GND:p" 2.548665260027349e-10
"Vn_SD:n" 5.105237378650318e-13
"Vn_SD:p" -5.105237378650318e-13
"Vn_VDD:n" 2.544866820529303e-10
"Vn_VDD:p" -2.544866820529303e-10
"Vn_Z:n" -5.317787007141372e-16
"Vn_Z:p" 5.317787007141372e-16
"time" 5.850000000000002e-10
"Vn_D1:v" 0.000000000000000e+00
"Vn_D1:i" 7.514783132655101e-14
"Vn_D1:pwr" 0.000000000000000e+00
"Vn_GND:v" 0.000000000000000e+00
"Vn_GND:i" 2.548661634081078e-10
"Vn_GND:pwr" 0.000000000000000e+00
"Vn_SD:v" 0.000000000000000e+00
"Vn_SD:i" -5.105975497950491e-13
"Vn_SD:pwr" -0.000000000000000e+00
"Vn_VDD:v" 1.200000000000000e+00
"Vn_VDD:i" -2.544853192335885e-10
"Vn_VDD:pwr" -3.053823830803062e-10
"Vn_Z:v" 0.000000000000000e+00
"Vn_Z:i" -3.197481625191264e-16
"Vn_Z:pwr" -0.000000000000000e+00
"n_Z" 1.199999494856458e+00
"n_D1" 0.000000000000000e+00
"n_SD" 1.200000000000000e+00
"Vn_D1:n" -7.514783132655101e-14
"Vn_D1:p" 7.514783132655101e-14
"Vn_GND:n" -2.548661634081078e-10
"Vn_GND:p" 2.548661634081078e-10
"Vn_SD:n" 5.105975497950491e-13
"Vn_SD:p" -5.105975497950491e-13
"Vn_VDD:n" 2.544853192335885e-10
"Vn_VDD:p" -2.544853192335885e-10
"Vn_Z:n" 3.197481625191264e-16
"Vn_Z:p" -3.197481625191264e-16
"time" 1.209000000000000e-09
"Vn_D1:v" 0.000000000000000e+00
"Vn_D1:i" 7.518898879149355e-14
"Vn_D1:pwr" 0.000000000000000e+00
"Vn_GND:v" 0.000000000000000e+00
"Vn_GND:i" 2.548663569511846e-10
"Vn_GND:pwr" 0.000000000000000e+00
"Vn_SD:v" 0.000000000000000e+00
"Vn_SD:i" -5.105495314486704e-13
"Vn_SD:pwr" -0.000000000000000e+00
"Vn_VDD:v" 1.200000000000000e+00
"Vn_VDD:i" -2.544861861096526e-10
"Vn_VDD:pwr" -3.053834233315831e-10
"Vn_Z:v" 0.000000000000000e+00
"Vn_Z:i" 2.520236107317023e-16
"Vn_Z:pwr" 0.000000000000000e+00
"n_Z" 1.199999494852232e+00
"n_D1" 0.000000000000000e+00
"n_SD" 1.200000000000000e+00
"Vn_D1:n" -7.518898879149355e-14
"Vn_D1:p" 7.518898879149355e-14
"Vn_GND:n" -2.548663569511846e-10
"Vn_GND:p" 2.548663569511846e-10
"Vn_SD:n" 5.105495314486704e-13
"Vn_SD:p" -5.105495314486704e-13
"Vn_VDD:n" 2.544861861096526e-10
"Vn_VDD:p" -2.544861861096526e-10
"Vn_Z:n" -2.520236107317023e-16
"Vn_Z:p" 2.520236107317023e-16
"time" 1.989000000000000e-09
"Vn_D1:v" 0.000000000000000e+00
"Vn_D1:i" 7.515721196701917e-14
"Vn_D1:pwr" 0.000000000000000e+00
"Vn_GND:v" 0.000000000000000e+00
"Vn_GND:i" 2.548661278841647e-10
"Vn_GND:pwr" 0.000000000000000e+00
"Vn_SD:v" 0.000000000000000e+00
"Vn_SD:i" -5.105869683939627e-13
"Vn_SD:pwr" -0.000000000000000e+00
"Vn_VDD:v" 1.200000000000000e+00
"Vn_VDD:i" -2.544854205361837e-10
"Vn_VDD:pwr" -3.053825046434205e-10
"Vn_Z:v" 0.000000000000000e+00
"Vn_Z:i" -2.047803792131011e-16
"Vn_Z:pwr" -0.000000000000000e+00
"n_Z" 1.199999494855917e+00
"n_D1" 0.000000000000000e+00
"n_SD" 1.200000000000000e+00
"Vn_D1:n" -7.515721196701917e-14
"Vn_D1:p" 7.515721196701917e-14
"Vn_GND:n" -2.548661278841647e-10
"Vn_GND:p" 2.548661278841647e-10
"Vn_SD:n" 5.105869683939627e-13
"Vn_SD:p" -5.105869683939627e-13
"Vn_VDD:n" 2.544854205361837e-10
"Vn_VDD:p" -2.544854205361837e-10
"Vn_Z:n" 2.047803792131011e-16
"Vn_Z:p" -2.047803792131011e-16
"time" 2.769000000000001e-09
"Vn_D1:v" 0.000000000000000e+00
"Vn_D1:i" 7.518242037585468e-14
"Vn_D1:pwr" 0.000000000000000e+00
"Vn_GND:v" 0.000000000000000e+00
"Vn_GND:i" 2.548662327649012e-10
"Vn_GND:pwr" 0.000000000000000e+00
"Vn_SD:v" 0.000000000000000e+00
"Vn_SD:i" -5.105569253178139e-13
"Vn_SD:pwr" -0.000000000000000e+00
"Vn_VDD:v" 1.200000000000000e+00
"Vn_VDD:i" -2.544859645342955e-10
"Vn_VDD:pwr" -3.053831574411546e-10
"Vn_Z:v" 0.000000000000000e+00
"Vn_Z:i" 1.706658825401274e-16
"Vn_Z:pwr" 0.000000000000000e+00
"n_Z" 1.199999494853256e+00
"n_D1" 0.000000000000000e+00
"n_SD" 1.200000000000000e+00
"Vn_D1:n" -7.518242037585468e-14
"Vn_D1:p" 7.518242037585468e-14
"Vn_GND:n" -2.548662327649012e-10
"Vn_GND:p" 2.548662327649012e-10
"Vn_SD:n" 5.105569253178139e-13
"Vn_SD:p" -5.105569253178139e-13
"Vn_VDD:n" 2.544859645342955e-10
"Vn_VDD:p" -2.544859645342955e-10
"Vn_Z:n" -1.706658825401274e-16
"Vn_Z:p" 1.706658825401274e-16
"time" 3.000000000000000e-09
"Vn_D1:v" 0.000000000000000e+00
"Vn_D1:i" 7.516682339712518e-14
"Vn_D1:pwr" 0.000000000000000e+00
"Vn_GND:v" 0.000000000000000e+00
"Vn_GND:i" 2.548661168082955e-10
"Vn_GND:pwr" 0.000000000000000e+00
"Vn_SD:v" 0.000000000000000e+00
"Vn_SD:i" -5.105761968313226e-13
"Vn_SD:pwr" -0.000000000000000e+00
"Vn_VDD:v" 1.200000000000000e+00
"Vn_VDD:i" -2.544855515492354e-10
"Vn_VDD:pwr" -3.053826618590824e-10
"Vn_Z:v" 0.000000000000000e+00
"Vn_Z:i" -8.424487957877907e-17
"Vn_Z:pwr" -0.000000000000000e+00
"n_Z" 1.199999494855253e+00
"n_D1" 0.000000000000000e+00
"n_SD" 1.200000000000000e+00
"Vn_D1:n" -7.516682339712518e-14
"Vn_D1:p" 7.516682339712518e-14
"Vn_GND:n" -2.548661168082955e-10
"Vn_GND:p" 2.548661168082955e-10
"Vn_SD:n" 5.105761968313226e-13
"Vn_SD:p" -5.105761968313226e-13
"Vn_VDD:n" 2.544855515492354e-10
"Vn_VDD:p" -2.544855515492354e-10
"Vn_Z:n" 8.424487957877907e-17
"Vn_Z:p" -8.424487957877907e-17
"time" 3.010000000000000e-09
"Vn_D1:v" 0.000000000000000e+00
"Vn_D1:i" 7.516607723241617e-14
"Vn_D1:pwr" 0.000000000000000e+00
"Vn_GND:v" 0.000000000000000e+00
"Vn_GND:i" 2.548661236163459e-10
"Vn_GND:pwr" 0.000000000000000e+00
"Vn_SD:v" 0.000000000000000e+00
"Vn_SD:i" -5.105757014309930e-13
"Vn_SD:pwr" -0.000000000000000e+00
"Vn_VDD:v" 1.200000000000000e+00
"Vn_VDD:i" -2.544855798181671e-10
"Vn_VDD:pwr" -3.053826957818004e-10
"Vn_Z:v" 0.000000000000000e+00
"Vn_Z:i" -6.563940747023972e-17
"Vn_Z:pwr" -0.000000000000000e+00
"n_Z" 1.199999494855121e+00
"n_D1" 0.000000000000000e+00
"n_SD" 1.200000000000000e+00
"Vn_D1:n" -7.516607723241617e-14
"Vn_D1:p" 7.516607723241617e-14
"Vn_GND:n" -2.548661236163459e-10
"Vn_GND:p" 2.548661236163459e-10
"Vn_SD:n" 5.105757014309930e-13
"Vn_SD:p" -5.105757014309930e-13
"Vn_VDD:n" 2.544855798181671e-10
"Vn_VDD:p" -2.544855798181671e-10
"Vn_Z:n" 6.563940747023972e-17
"Vn_Z:p" -6.563940747023972e-17
"time" 3.030000000000000e-09
"Vn_D1:v" 0.000000000000000e+00
"Vn_D1:i" 7.516773818954675e-14
"Vn_D1:pwr" 0.000000000000000e+00
"Vn_GND:v" 0.000000000000000e+00
"Vn_GND:i" 2.548661318849100e-10
"Vn_GND:pwr" 0.000000000000000e+00
"Vn_SD:v" 0.000000000000000e+00
"Vn_SD:i" -5.105741777442529e-13
"Vn_SD:pwr" -0.000000000000000e+00
"Vn_VDD:v" 1.200000000000000e+00
"Vn_VDD:i" -2.544856142286374e-10
"Vn_VDD:pwr" -3.053827370743648e-10
"Vn_Z:v" 0.000000000000000e+00
"Vn_Z:i" -4.272832334536298e-17
"Vn_Z:pwr" -0.000000000000000e+00
"n_Z" 1.199999494854950e+00
"n_D1" 0.000000000000000e+00
"n_SD" 1.200000000000000e+00
"Vn_D1:n" -7.516773818954675e-14
"Vn_D1:p" 7.516773818954675e-14
"Vn_GND:n" -2.548661318849100e-10
"Vn_GND:p" 2.548661318849100e-10
"Vn_SD:n" 5.105741777442529e-13
"Vn_SD:p" -5.105741777442529e-13
"Vn_VDD:n" 2.544856142286374e-10
"Vn_VDD:p" -2.544856142286374e-10
"Vn_Z:n" 4.272832334536298e-17
"Vn_Z:p" -4.272832334536298e-17
"time" 3.070000000000001e-09
"Vn_D1:v" 0.000000000000000e+00
"Vn_D1:i" 7.517014696557969e-14
"Vn_D1:pwr" 0.000000000000000e+00
"Vn_GND:v" 0.000000000000000e+00
"Vn_GND:i" 2.548661419161689e-10
"Vn_GND:pwr" 0.000000000000000e+00
"Vn_SD:v" 0.000000000000000e+00
"Vn_SD:i" -5.105716101781059e-13
"Vn_SD:pwr" -0.000000000000000e+00
"Vn_VDD:v" 1.200000000000000e+00
"Vn_VDD:i" -2.544856590268563e-10
"Vn_VDD:pwr" -3.053827908322276e-10
"Vn_Z:v" 0.000000000000000e+00
"Vn_Z:i" -1.196636197291405e-17
"Vn_Z:pwr" -0.000000000000000e+00
"n_Z" 1.199999494854732e+00
"n_D1" 0.000000000000000e+00
"n_SD" 1.200000000000000e+00
"Vn_D1:n" -7.517014696557969e-14
"Vn_D1:p" 7.517014696557969e-14
"Vn_GND:n" -2.548661419161689e-10
"Vn_GND:p" 2.548661419161689e-10
"Vn_SD:n" 5.105716101781059e-13
"Vn_SD:p" -5.105716101781059e-13
"Vn_VDD:n" 2.544856590268563e-10
"Vn_VDD:p" -2.544856590268563e-10
"Vn_Z:n" 1.196636197291405e-17
"Vn_Z:p" -1.196636197291405e-17
"time" 3.150000000000003e-09
"Vn_D1:v" 0.000000000000000e+00
"Vn_D1:i" 7.517137244818514e-14
"Vn_D1:pwr" 0.000000000000000e+00
"Vn_GND:v" 0.000000000000000e+00
"Vn_GND:i" 2.548661425715746e-10
"Vn_GND:pwr" 0.000000000000000e+00
"Vn_SD:v" 0.000000000000000e+00
"Vn_SD:i" -5.105701946516833e-13
"Vn_SD:pwr" -0.000000000000000e+00
"Vn_VDD:v" 1.200000000000000e+00
"Vn_VDD:i" -2.544856742740083e-10
"Vn_VDD:pwr" -3.053828091288099e-10
"Vn_Z:v" 0.000000000000000e+00
"Vn_Z:i" 8.329585462737775e-19
"Vn_Z:pwr" 0.000000000000000e+00
"n_Z" 1.199999494854643e+00
"n_D1" 0.000000000000000e+00
"n_SD" 1.200000000000000e+00
"Vn_D1:n" -7.517137244818514e-14
"Vn_D1:p" 7.517137244818514e-14
"Vn_GND:n" -2.548661425715746e-10
"Vn_GND:p" 2.548661425715746e-10
"Vn_SD:n" 5.105701946516833e-13
"Vn_SD:p" -5.105701946516833e-13
"Vn_VDD:n" 2.544856742740083e-10
"Vn_VDD:p" -2.544856742740083e-10
"Vn_Z:n" -8.329585462737775e-19
"Vn_Z:p" 8.329585462737775e-19
"time" 3.310000000000005e-09
"Vn_D1:v" 0.000000000000000e+00
"Vn_D1:i" 7.517109233359678e-14
"Vn_D1:pwr" 0.000000000000000e+00
"Vn_GND:v" 0.000000000000000e+00
"Vn_GND:i" 2.548661326284181e-10
"Vn_GND:pwr" 0.000000000000000e+00
"Vn_SD:v" 0.000000000000000e+00
"Vn_SD:i" -5.105705614207051e-13
"Vn_SD:pwr" -0.000000000000000e+00
"Vn_VDD:v" 1.200000000000000e+00
"Vn_VDD:i" -2.544856715367591e-10
"Vn_VDD:pwr" -3.053828058441108e-10
"Vn_Z:v" 0.000000000000000e+00
"Vn_Z:i" 1.172090459968371e-18
"Vn_Z:pwr" 0.000000000000000e+00
"n_Z" 1.199999494854675e+00
"n_D1" 0.000000000000000e+00
"n_SD" 1.200000000000000e+00
"Vn_D1:n" -7.517109233359678e-14
"Vn_D1:p" 7.517109233359678e-14
"Vn_GND:n" -2.548661326284181e-10
"Vn_GND:p" 2.548661326284181e-10
"Vn_SD:n" 5.105705614207051e-13
"Vn_SD:p" -5.105705614207051e-13
"Vn_VDD:n" 2.544856715367591e-10
"Vn_VDD:p" -2.544856715367591e-10
"Vn_Z:n" -1.172090459968371e-18
"Vn_Z:p" 1.172090459968371e-18
"time" 3.630000000000011e-09
"Vn_D1:v" 0.000000000000000e+00
"Vn_D1:i" 7.517141381341114e-14
"Vn_D1:pwr" 0.000000000000000e+00
"Vn_GND:v" 0.000000000000000e+00
"Vn_GND:i" 2.548661148450595e-10
"Vn_GND:pwr" 0.000000000000000e+00
"Vn_SD:v" 0.000000000000000e+00
"Vn_SD:i" -5.105700747362680e-13
"Vn_SD:pwr" -0.000000000000000e+00
"Vn_VDD:v" 1.200000000000000e+00
"Vn_VDD:i" -2.544856444143087e-10
"Vn_VDD:pwr" -3.053827732971705e-10
"Vn_Z:v" 0.000000000000000e+00
"Vn_Z:i" 1.527531454623109e-18
"Vn_Z:pwr" 0.000000000000000e+00
"n_Z" 1.199999494854761e+00
"n_D1" 0.000000000000000e+00
"n_SD" 1.200000000000000e+00
"Vn_D1:n" -7.517141381341114e-14
"Vn_D1:p" 7.517141381341114e-14
"Vn_GND:n" -2.548661148450595e-10
"Vn_GND:p" 2.548661148450595e-10
"Vn_SD:n" 5.105700747362680e-13
"Vn_SD:p" -5.105700747362680e-13
"Vn_VDD:n" 2.544856444143087e-10
"Vn_VDD:p" -2.544856444143087e-10
"Vn_Z:n" -1.527531454623109e-18
"Vn_Z:p" 1.527531454623109e-18
"time" 4.270000000000022e-09
"Vn_D1:v" 0.000000000000000e+00
"Vn_D1:i" 7.517118243634880e-14
"Vn_D1:pwr" 0.000000000000000e+00
"Vn_GND:v" 0.000000000000000e+00
"Vn_GND:i" 2.548660772506509e-10
"Vn_GND:pwr" 0.000000000000000e+00
"Vn_SD:v" 0.000000000000000e+00
"Vn_SD:i" -5.105704912846262e-13
"Vn_SD:pwr" -0.000000000000000e+00
"Vn_VDD:v" 1.200000000000000e+00
"Vn_VDD:i" -2.544856114861208e-10
"Vn_VDD:pwr" -3.053827337833450e-10
"Vn_Z:v" 0.000000000000000e+00
"Vn_Z:i" 1.127391783257418e-18
"Vn_Z:pwr" 0.000000000000000e+00
"n_Z" 1.199999494854931e+00
"n_D1" 0.000000000000000e+00
"n_SD" 1.200000000000000e+00
"Vn_D1:n" -7.517118243634880e-14
"Vn_D1:p" 7.517118243634880e-14
"Vn_GND:n" -2.548660772506509e-10
"Vn_GND:p" 2.548660772506509e-10
"Vn_SD:n" 5.105704912846262e-13
"Vn_SD:p" -5.105704912846262e-13
"Vn_VDD:n" 2.544856114861208e-10
"Vn_VDD:p" -2.544856114861208e-10
"Vn_Z:n" -1.127391783257418e-18
"Vn_Z:p" 1.127391783257418e-18
"time" 5.050000000000022e-09
"Vn_D1:v" 0.000000000000000e+00
"Vn_D1:i" 7.517140221885119e-14
"Vn_D1:pwr" 0.000000000000000e+00
"Vn_GND:v" 0.000000000000000e+00
"Vn_GND:i" 2.548660322653264e-10
"Vn_GND:pwr" 0.000000000000000e+00
"Vn_SD:v" 0.000000000000000e+00
"Vn_SD:i" -5.105700788696278e-13
"Vn_SD:pwr" -0.000000000000000e+00
"Vn_VDD:v" 1.200000000000000e+00
"Vn_VDD:i" -2.544855619262839e-10
"Vn_VDD:pwr" -3.053826743115407e-10
"Vn_Z:v" 0.000000000000000e+00
"Vn_Z:i" 1.315193851367231e-18
"Vn_Z:pwr" 0.000000000000000e+00
"n_Z" 1.199999494855122e+00
"n_D1" 0.000000000000000e+00
"n_SD" 1.200000000000000e+00
"Vn_D1:n" -7.517140221885119e-14
"Vn_D1:p" 7.517140221885119e-14
"Vn_GND:n" -2.548660322653264e-10
"Vn_GND:p" 2.548660322653264e-10
"Vn_SD:n" 5.105700788696278e-13
"Vn_SD:p" -5.105700788696278e-13
"Vn_VDD:n" 2.544855619262839e-10
"Vn_VDD:p" -2.544855619262839e-10
"Vn_Z:n" -1.315193851367231e-18
"Vn_Z:p" 1.315193851367231e-18
"time" 5.830000000000022e-09
"Vn_D1:v" 0.000000000000000e+00
"Vn_D1:i" 7.517118755427997e-14
"Vn_D1:pwr" 0.000000000000000e+00
"Vn_GND:v" 0.000000000000000e+00
"Vn_GND:i" 2.548659868382692e-10
"Vn_GND:pwr" 0.000000000000000e+00
"Vn_SD:v" 0.000000000000000e+00
"Vn_SD:i" -5.105704896875396e-13
"Vn_SD:pwr" -0.000000000000000e+00
"Vn_VDD:v" 1.200000000000000e+00
"Vn_VDD:i" -2.544855228316992e-10
"Vn_VDD:pwr" -3.053826273980390e-10
"Vn_Z:v" 0.000000000000000e+00
"Vn_Z:i" 1.265448408236643e-18
"Vn_Z:pwr" 0.000000000000000e+00
"n_Z" 1.199999494855323e+00
"n_D1" 0.000000000000000e+00
"n_SD" 1.200000000000000e+00
"Vn_D1:n" -7.517118755427997e-14
"Vn_D1:p" 7.517118755427997e-14
"Vn_GND:n" -2.548659868382692e-10
"Vn_GND:p" 2.548659868382692e-10
"Vn_SD:n" 5.105704896875396e-13
"Vn_SD:p" -5.105704896875396e-13
"Vn_VDD:n" 2.544855228316992e-10
"Vn_VDD:p" -2.544855228316992e-10
"Vn_Z:n" -1.265448408236643e-18
"Vn_Z:p" 1.265448408236643e-18
"time" 6.010000000000000e-09
"Vn_D1:v" 0.000000000000000e+00
"Vn_D1:i" 7.517143899670022e-14
"Vn_D1:pwr" 0.000000000000000e+00
"Vn_GND:v" 0.000000000000000e+00
"Vn_GND:i" 2.548659770707698e-10
"Vn_GND:pwr" 0.000000000000000e+00
"Vn_SD:v" 0.000000000000000e+00
"Vn_SD:i" -5.105700032575170e-13
"Vn_SD:pwr" -0.000000000000000e+00
"Vn_VDD:v" 1.200000000000000e+00
"Vn_VDD:i" -2.544855093867383e-10
"Vn_VDD:pwr" -3.053826112640860e-10
"Vn_Z:v" 0.000000000000000e+00
"Vn_Z:i" 6.176265939770017e-19
"Vn_Z:pwr" 0.000000000000000e+00
"n_Z" 1.199999494855357e+00
"n_D1" 0.000000000000000e+00
"n_SD" 1.200000000000000e+00
"Vn_D1:n" -7.517143899670022e-14
"Vn_D1:p" 7.517143899670022e-14
"Vn_GND:n" -2.548659770707698e-10
"Vn_GND:p" 2.548659770707698e-10
"Vn_SD:n" 5.105700032575170e-13
"Vn_SD:p" -5.105700032575170e-13
"Vn_VDD:n" 2.544855093867383e-10
"Vn_VDD:p" -2.544855093867383e-10
"Vn_Z:n" -6.176265939770017e-19
"Vn_Z:p" 6.176265939770017e-19
"time" 6.019999479700000e-09
"Vn_D1:v" 0.000000000000000e+00
"Vn_D1:i" 7.517132755457869e-14
"Vn_D1:pwr" 0.000000000000000e+00
"Vn_GND:v" 0.000000000000000e+00
"Vn_GND:i" 2.548659759398900e-10
"Vn_GND:pwr" 0.000000000000000e+00
"Vn_SD:v" 0.000000000000000e+00
"Vn_SD:i" -5.105702519027433e-13
"Vn_SD:pwr" -0.000000000000000e+00
"Vn_VDD:v" 1.200000000000000e+00
"Vn_VDD:i" -2.544855101385238e-10
"Vn_VDD:pwr" -3.053826121662285e-10
"Vn_Z:v" 0.000000000000000e+00
"Vn_Z:i" 1.570043416382337e-18
"Vn_Z:pwr" 0.000000000000000e+00
"n_Z" 1.199999494855360e+00
"n_D1" 0.000000000000000e+00
"n_SD" 1.200000000000000e+00
"Vn_D1:n" -7.517132755457869e-14
"Vn_D1:p" 7.517132755457869e-14
"Vn_GND:n" -2.548659759398900e-10
"Vn_GND:p" 2.548659759398900e-10
"Vn_SD:n" 5.105702519027433e-13
"Vn_SD:p" -5.105702519027433e-13
"Vn_VDD:n" 2.544855101385238e-10
"Vn_VDD:p" -2.544855101385238e-10
"Vn_Z:n" -1.570043416382337e-18
"Vn_Z:p" 1.570043416382337e-18
"time" 6.020000000000000e-09
"Vn_D1:v" 0.000000000000000e+00
"Vn_D1:i" -5.305157156545262e-07
"Vn_D1:pwr" -0.000000000000000e+00
"Vn_GND:v" 0.000000000000000e+00
"Vn_GND:i" 9.544344659694317e-08
"Vn_GND:pwr" 0.000000000000000e+00
"Vn_SD:v" 0.000000000000000e+00
"Vn_SD:i" 5.429797316392995e-11
"Vn_SD:pwr" 0.000000000000000e+00
"Vn_VDD:v" 1.200000000000000e+00
"Vn_VDD:i" 4.350173504401669e-07
"Vn_VDD:pwr" 5.220208205282003e-07
"Vn_Z:v" 0.000000000000000e+00
"Vn_Z:i" 5.655427382479216e-13
"Vn_Z:pwr" 0.000000000000000e+00
"n_Z" 1.199999494855419e+00
"n_D1" 2.456516759776461e-07
"n_SD" 1.200000000000000e+00
"Vn_D1:n" 5.305157156545262e-07
"Vn_D1:p" -5.305157156545262e-07
"Vn_GND:n" -9.544344659694317e-08
"Vn_GND:p" 9.544344659694317e-08
"Vn_SD:n" -5.429797316392995e-11
"Vn_SD:p" 5.429797316392995e-11
"Vn_VDD:n" -4.350173504401669e-07
"Vn_VDD:p" 4.350173504401669e-07
"Vn_Z:n" -5.655427382479216e-13
"Vn_Z:p" 5.655427382479216e-13
"time" 6.020001040600000e-09
"Vn_D1:v" 0.000000000000000e+00
"Vn_D1:i" -5.317631845449035e-07
"Vn_D1:pwr" -0.000000000000000e+00
"Vn_GND:v" 0.000000000000000e+00
"Vn_GND:i" 9.565916443194377e-08
"Vn_GND:pwr" 0.000000000000000e+00
"Vn_SD:v" 0.000000000000000e+00
"Vn_SD:i" 1.632122072022472e-10
"Vn_SD:pwr" 0.000000000000000e+00
"Vn_VDD:v" 1.200000000000000e+00
"Vn_VDD:i" 4.359368629128340e-07
"Vn_VDD:pwr" 5.231242354954007e-07
"Vn_Z:v" 0.000000000000000e+00
"Vn_Z:i" 3.889106230519960e-12
"Vn_Z:pwr" 0.000000000000000e+00
"n_Z" 1.199999494856229e+00
"n_D1" 7.369550279329381e-07
"n_SD" 1.200000000000000e+00
"Vn_D1:n" 5.317631845449035e-07
"Vn_D1:p" -5.317631845449035e-07
"Vn_GND:n" -9.565916443194377e-08
"Vn_GND:p" 9.565916443194377e-08
"Vn_SD:n" -1.632122072022472e-10
"Vn_SD:p" 1.632122072022472e-10
"Vn_VDD:n" -4.359368629128340e-07
"Vn_VDD:p" 4.359368629128340e-07
"Vn_Z:n" -3.889106230519960e-12
"Vn_Z:p" 3.889106230519960e-12
"time" 6.020003121800001e-09
"Vn_D1:v" 0.000000000000000e+00
"Vn_D1:i" -5.342398275857780e-07
"Vn_D1:pwr" -0.000000000000000e+00
"Vn_GND:v" 0.000000000000000e+00
"Vn_GND:i" 9.608765696113964e-08
"Vn_GND:pwr" 0.000000000000000e+00
"Vn_SD:v" 0.000000000000000e+00
"Vn_SD:i" 3.796423096398518e-10
"Vn_SD:pwr" 0.000000000000000e+00
"Vn_VDD:v" 1.200000000000000e+00
"Vn_VDD:i" 4.377576887720046e-07
"Vn_VDD:pwr" 5.253092265264054e-07
"Vn_Z:v" 0.000000000000000e+00
"Vn_Z:i" 1.478549348127525e-11
"Vn_Z:pwr" 0.000000000000000e+00
"n_Z" 1.199999494860115e+00
"n_D1" 1.719561731843522e-06
"n_SD" 1.200000000000000e+00
"Vn_D1:n" 5.342398275857780e-07
"Vn_D1:p" -5.342398275857780e-07
"Vn_GND:n" -9.608765696113964e-08
"Vn_GND:p" 9.608765696113964e-08
"Vn_SD:n" -3.796423096398518e-10
"Vn_SD:p" 3.796423096398518e-10
"Vn_VDD:n" -4.377576887720046e-07
"Vn_VDD:p" 4.377576887720046e-07
"Vn_Z:n" -1.478549348127525e-11
"Vn_Z:p" 1.478549348127525e-11
"time" 6.020007284200001e-09
"Vn_D1:v" 0.000000000000000e+00
"Vn_D1:i" -5.390851918885622e-07
"Vn_D1:pwr" -0.000000000000000e+00
"Vn_GND:v" 0.000000000000000e+00
"Vn_GND:i" 9.692718653048249e-08
"Vn_GND:pwr" 0.000000000000000e+00
"Vn_SD:v" 0.000000000000000e+00
"Vn_SD:i" 8.041808233322218e-10
"Vn_SD:pwr" 0.000000000000000e+00
"Vn_VDD:v" 1.200000000000000e+00
"Vn_VDD:i" 4.412932369571845e-07
"Vn_VDD:pwr" 5.295518843486213e-07
"Vn_Z:v" 0.000000000000000e+00
"Vn_Z:i" 6.053150189347938e-11
"Vn_Z:pwr" 0.000000000000000e+00
"n_Z" 1.199999494891465e+00
"n_D1" 3.684775139664691e-06
"n_SD" 1.200000000000000e+00
"Vn_D1:n" 5.390851918885622e-07
"Vn_D1:p" -5.390851918885622e-07
"Vn_GND:n" -9.692718653048249e-08
"Vn_GND:p" 9.692718653048249e-08
"Vn_SD:n" -8.041808233322218e-10
"Vn_SD:p" 8.041808233322218e-10
"Vn_VDD:n" -4.412932369571845e-07
"Vn_VDD:p" 4.412932369571845e-07
"Vn_Z:n" -6.053150189347938e-11
"Vn_Z:p" 6.053150189347938e-11
"time" 6.020015609000002e-09
"Vn_D1:v" 0.000000000000000e+00
"Vn_D1:i" -5.483629518947830e-07
"Vn_D1:pwr" -0.000000000000000e+00
"Vn_GND:v" 0.000000000000000e+00
"Vn_GND:i" 9.853834461712492e-08
"Vn_GND:pwr" 0.000000000000000e+00
"Vn_SD:v" 0.000000000000000e+00
"Vn_SD:i" 1.620846927481670e-09
"Vn_SD:pwr" 0.000000000000000e+00
"Vn_VDD:v" 1.200000000000000e+00
"Vn_VDD:i" 4.479697436354481e-07
"Vn_VDD:pwr" 5.375636923625377e-07
"Vn_Z:v" 0.000000000000000e+00
"Vn_Z:i" 2.339631309958241e-10
"Vn_Z:pwr" 0.000000000000000e+00
"n_Z" 1.199999495136626e+00
"n_D1" 7.615201955307027e-06
"n_SD" 1.200000000000000e+00
"Vn_D1:n" 5.483629518947830e-07
"Vn_D1:p" -5.483629518947830e-07
"Vn_GND:n" -9.853834461712492e-08
"Vn_GND:p" 9.853834461712492e-08
"Vn_SD:n" -1.620846927481670e-09
"Vn_SD:p" 1.620846927481670e-09
"Vn_VDD:n" -4.479697436354481e-07
"Vn_VDD:p" 4.479697436354481e-07
"Vn_Z:n" -2.339631309958241e-10
"Vn_Z:p" 2.339631309958241e-10
"time" 6.020032258600003e-09
"Vn_D1:v" 0.000000000000000e+00
"Vn_D1:i" -5.654016983331995e-07
"Vn_D1:pwr" -0.000000000000000e+00
"Vn_GND:v" 0.000000000000000e+00
"Vn_GND:i" 1.015044501921644e-07
"Vn_GND:pwr" 0.000000000000000e+00
"Vn_SD:v" 0.000000000000000e+00
"Vn_SD:i" 3.131431136445982e-09
"Vn_SD:pwr" 0.000000000000000e+00
"Vn_VDD:v" 1.200000000000000e+00
"Vn_VDD:i" 4.599451693941108e-07
"Vn_VDD:pwr" 5.519342032729329e-07
"Vn_Z:v" 0.000000000000000e+00
"Vn_Z:i" 8.205914755264841e-10
"Vn_Z:pwr" 0.000000000000000e+00
"n_Z" 1.199999496892418e+00
"n_D1" 1.547605558659170e-05
"n_SD" 1.200000000000000e+00
"Vn_D1:n" 5.654016983331995e-07
"Vn_D1:p" -5.654016983331995e-07
"Vn_GND:n" -1.015044501921644e-07
"Vn_GND:p" 1.015044501921644e-07
"Vn_SD:n" -3.131431136445982e-09
"Vn_SD:p" 3.131431136445982e-09
"Vn_VDD:n" -4.599451693941108e-07
"Vn_VDD:p" 4.599451693941108e-07
"Vn_Z:n" -8.205914755264841e-10
"Vn_Z:p" 8.205914755264841e-10
"time" 6.020065557800006e-09
"Vn_D1:v" 0.000000000000000e+00
"Vn_D1:i" -5.817059264627521e-07
"Vn_D1:pwr" -0.000000000000000e+00
"Vn_GND:v" 0.000000000000000e+00
"Vn_GND:i" 1.065925767657653e-07
"Vn_GND:pwr" 0.000000000000000e+00
"Vn_SD:v" 0.000000000000000e+00
"Vn_SD:i" 5.726329206991415e-09
"Vn_SD:pwr" 0.000000000000000e+00
"Vn_VDD:v" 1.200000000000000e+00
"Vn_VDD:i" 4.668668137452396e-07
"Vn_VDD:pwr" 5.602401764942874e-07
"Vn_Z:v" 0.000000000000000e+00
"Vn_Z:i" 2.520153010531180e-09
"Vn_Z:pwr" 0.000000000000000e+00
"n_Z" 1.199999508016830e+00
"n_D1" 3.119776284916105e-05
"n_SD" 1.200000000000000e+00
"Vn_D1:n" 5.817059264627521e-07
"Vn_D1:p" -5.817059264627521e-07
"Vn_GND:n" -1.065925767657653e-07
"Vn_GND:p" 1.065925767657653e-07
"Vn_SD:n" -5.726329206991415e-09
"Vn_SD:p" 5.726329206991415e-09
"Vn_VDD:n" -4.668668137452396e-07
"Vn_VDD:p" 4.668668137452396e-07
"Vn_Z:n" -2.520153010531180e-09
"Vn_Z:p" 2.520153010531180e-09
"time" 6.020132156200012e-09
"Vn_D1:v" 0.000000000000000e+00
"Vn_D1:i" -6.292976406025760e-07
"Vn_D1:pwr" -0.000000000000000e+00
"Vn_GND:v" 0.000000000000000e+00
"Vn_GND:i" 1.140650286070647e-07
"Vn_GND:pwr" 0.000000000000000e+00
"Vn_SD:v" 0.000000000000000e+00
"Vn_SD:i" 9.605079794636235e-09
"Vn_SD:pwr" 0.000000000000000e+00
"Vn_VDD:v" 1.200000000000000e+00
"Vn_VDD:i" 4.992026567567029e-07
"Vn_VDD:pwr" 5.990431881080435e-07
"Vn_Z:v" 0.000000000000000e+00
"Vn_Z:i" 6.424819309712191e-09
"Vn_Z:pwr" 0.000000000000000e+00
"n_Z" 1.199999567588914e+00
"n_D1" 6.264117737429975e-05
"n_SD" 1.200000000000000e+00
"Vn_D1:n" 6.292976406025760e-07
"Vn_D1:p" -6.292976406025760e-07
"Vn_GND:n" -1.140650286070647e-07
"Vn_GND:p" 1.140650286070647e-07
"Vn_SD:n" -9.605079794636235e-09
"Vn_SD:p" 9.605079794636235e-09
"Vn_VDD:n" -4.992026567567029e-07
"Vn_VDD:p" 4.992026567567029e-07
"Vn_Z:n" -6.424819309712191e-09
"Vn_Z:p" 6.424819309712191e-09
"time" 6.020265353000023e-09
"Vn_D1:v" 0.000000000000000e+00
"Vn_D1:i" -6.664212947476505e-07
"Vn_D1:pwr" -0.000000000000000e+00
"Vn_GND:v" 0.000000000000000e+00
"Vn_GND:i" 1.225635755841786e-07
"Vn_GND:pwr" 0.000000000000000e+00
"Vn_SD:v" 0.000000000000000e+00
"Vn_SD:i" 1.407322344182766e-08
"Vn_SD:pwr" 0.000000000000000e+00