HEADER
"PSFversion" "1.00"
"simulator" "spectre"
"version" "10.1.1.164.isr11"
"date" "3:01:57 PM, Fri Oct 17, 2014"
"design" "* Spectre Timing Acquisition"
"analysis type" "tran"
"analysis name" "transient1-023_transient1"
"analysis description" "Transient Analysis `transient1-023_transient1': time = (0 s -> 39 ns)"
"xVecSorted" "ascending"
"tolerance.relative" 0.00100000
"start" 0.00000
"outputstart" 0.00000
"stop" 3.90000e-08
"step" 3.90000e-11
"maxstep" 7.80000e-10
"ic" "all"
"useprevic" "no"
"skipdc" "no"
"reltol" 0.00100000
"abstol(V)" 1.00000e-06
"abstol(I)" 1.00000e-12
"temp" 25.0000
"tnom" 27.0000
"tempeffects" "all"
"errpreset" "moderate"
"method" "traponly"
"lteratio" 3.50000
"relref" "sigglobal"
"cmin" 0.00000
"gmin" 1.00000e-12
TYPE
"sweep" FLOAT DOUBLE PROP(
"key" "sweep"
)
"Tau" FLOAT DOUBLE PROP(
"units" "N*m"
"key" "node"
"tolerance" 1.00000e-06
)
"Alpha" FLOAT DOUBLE PROP(
"units" "rads/s^2"
"key" "node"
"tolerance" 1.00000e-06
)
"Omega" FLOAT DOUBLE PROP(
"units" "rads/s"
"key" "node"
"tolerance" 1.00000e-06
)
"Theta" FLOAT DOUBLE PROP(
"units" "rads"
"key" "node"
"tolerance" 1.00000e-06
)
"F" FLOAT DOUBLE PROP(
"units" "N"
"key" "node"
"tolerance" 1.00000e-06
)
"Imp" FLOAT DOUBLE PROP(
"units" "m/s^3"
"key" "node"
"tolerance" 1.00000e-06
)
"Acc" FLOAT DOUBLE PROP(
"units" "m/s^2"
"key" "node"
"tolerance" 1.00000e-06
)
"Vel" FLOAT DOUBLE PROP(
"units" "m/s"
"key" "node"
"tolerance" 1.00000e-06
)
"Pos" FLOAT DOUBLE PROP(
"units" "m"
"key" "node"
"tolerance" 1.00000e-06
)
"Phi" FLOAT DOUBLE PROP(
"units" "Wb"
"key" "node"
"tolerance" 1.00000e-09
)
"Q" FLOAT DOUBLE PROP(
"units" "coul"
"key" "node"
"tolerance" 1.00000e-14
)
"V" FLOAT DOUBLE PROP(
"units" "V"
"key" "node"
"tolerance" 1.00000e-06
)
"I" FLOAT DOUBLE PROP(
"units" "A"
"key" "branch"
"tolerance" 1.00000e-12
)
"MMF" FLOAT DOUBLE PROP(
"units" "A*turn"
"key" "node"
"tolerance" 1.00000e-12
)
"Wb" FLOAT DOUBLE PROP(
"units" "Wb"
"key" "node"
"tolerance" 1.00000e-09
)
"Temp" FLOAT DOUBLE PROP(
"units" "C"
"key" "node"
"tolerance" 0.000100000
)
"Pwr" FLOAT DOUBLE PROP(
"units" "W"
"key" "node"
"tolerance" 1.00000e-09
)
"U" FLOAT DOUBLE PROP(
"units" ""
"key" "node"
"tolerance" 1.00000e-06
)
"V/Sec" FLOAT DOUBLE PROP(
"units" "V/s"
"key" "node"
"tolerance" 0.000100000
)
"I/Sec" FLOAT DOUBLE PROP(
"units" "A/s"
"key" "node"
"tolerance" 1.00000e-06
)
"1/Sec" FLOAT DOUBLE PROP(
"units" "1/s"
"key" "node"
"tolerance" 0.000100000
)
"HOD" FLOAT DOUBLE PROP(
"units" ""
"key" "node"
"tolerance" 0.0100000
)
"A" FLOAT DOUBLE PROP(
"key" "inst"
)
"W" FLOAT DOUBLE PROP(
"key" "inst"
)
SWEEP
"time" "sweep" PROP(
"sweep_direction" 0
"units" "s"
"plot" 0
"grid" 1
)
TRACE
"Vn_D1:v" "V" PROP(
"units" "V"
)
"Vn_D1:i" "A" PROP(
"units" "A"
)
"Vn_D1:pwr" "W" PROP(
"units" "W"
)
"Vn_GND:v" "V" PROP(
"units" "V"
)
"Vn_GND:i" "A" PROP(
"units" "A"
)
"Vn_GND:pwr" "W" PROP(
"units" "W"
)
"Vn_SD:v" "V" PROP(
"units" "V"
)
"Vn_SD:i" "A" PROP(
"units" "A"
)
"Vn_SD:pwr" "W" PROP(
"units" "W"
)
"Vn_VDD:v" "V" PROP(
"units" "V"
)
"Vn_VDD:i" "A" PROP(
"units" "A"
)
"Vn_VDD:pwr" "W" PROP(
"units" "W"
)
"Vn_Z:v" "V" PROP(
"units" "V"
)
"Vn_Z:i" "A" PROP(
"units" "A"
)
"Vn_Z:pwr" "W" PROP(
"units" "W"
)
"n_Z" "V"
"n_D1" "V"
"n_SD" "V"
"Vn_D1:n" "I"
"Vn_D1:p" "I"
"Vn_GND:n" "I"
"Vn_GND:p" "I"
"Vn_SD:n" "I"
"Vn_SD:p" "I"
"Vn_VDD:n" "I"
"Vn_VDD:p" "I"
"Vn_Z:n" "I"
"Vn_Z:p" "I"
VALUE
"time" 0.000000000000000e+00
"Vn_D1:v" 0.000000000000000e+00
"Vn_D1:i" 7.517119452868310e-14
"Vn_D1:pwr" 0.000000000000000e+00
"Vn_GND:v" 0.000000000000000e+00
"Vn_GND:i" 2.548493107915355e-10
"Vn_GND:pwr" 0.000000000000000e+00
"Vn_SD:v" 0.000000000000000e+00
"Vn_SD:i" -5.105704018311274e-13
"Vn_SD:pwr" -0.000000000000000e+00
"Vn_VDD:v" 1.200000000000000e+00
"Vn_VDD:i" -2.544688430804971e-10
"Vn_VDD:pwr" -3.053626116965965e-10
"Vn_Z:v" 0.000000000000000e+00
"Vn_Z:i" 0.000000000000000e+00
"Vn_Z:pwr" 0.000000000000000e+00
"n_Z" 1.199999494927445e+00
"n_D1" 0.000000000000000e+00
"n_SD" 1.200000000000000e+00
"Vn_D1:n" -7.517119452868310e-14
"Vn_D1:p" 7.517119452868310e-14
"Vn_GND:n" -2.548493107915355e-10
"Vn_GND:p" 2.548493107915355e-10
"Vn_SD:n" 5.105704018311274e-13
"Vn_SD:p" -5.105704018311274e-13
"Vn_VDD:n" 2.544688430804971e-10
"Vn_VDD:p" -2.544688430804971e-10
"Vn_Z:n" 0.000000000000000e+00
"Vn_Z:p" 0.000000000000000e+00
"time" 3.900000000000000e-11
"Vn_D1:v" 0.000000000000000e+00
"Vn_D1:i" 7.487395650400349e-14
"Vn_D1:pwr" 0.000000000000000e+00
"Vn_GND:v" 0.000000000000000e+00
"Vn_GND:i" 2.548644059656992e-10
"Vn_GND:pwr" 0.000000000000000e+00
"Vn_SD:v" 0.000000000000000e+00
"Vn_SD:i" -5.109415684367497e-13
"Vn_SD:pwr" -0.000000000000000e+00
"Vn_VDD:v" 1.200000000000000e+00
"Vn_VDD:i" -2.544778553951692e-10
"Vn_VDD:pwr" -3.053734264742031e-10
"Vn_Z:v" 0.000000000000000e+00
"Vn_Z:i" -5.414454257983884e-15
"Vn_Z:pwr" -0.000000000000000e+00
"n_Z" 1.199999494891654e+00
"n_D1" 0.000000000000000e+00
"n_SD" 1.200000000000000e+00
"Vn_D1:n" -7.487395650400349e-14
"Vn_D1:p" 7.487395650400349e-14
"Vn_GND:n" -2.548644059656992e-10
"Vn_GND:p" 2.548644059656992e-10
"Vn_SD:n" 5.109415684367497e-13
"Vn_SD:p" -5.109415684367497e-13
"Vn_VDD:n" 2.544778553951692e-10
"Vn_VDD:p" -2.544778553951692e-10
"Vn_Z:n" 5.414454257983884e-15
"Vn_Z:p" -5.414454257983884e-15
"time" 1.170000000000000e-10
"Vn_D1:v" 0.000000000000000e+00
"Vn_D1:i" 7.504670333538468e-14
"Vn_D1:pwr" 0.000000000000000e+00
"Vn_GND:v" 0.000000000000000e+00
"Vn_GND:i" 2.548656855629554e-10
"Vn_GND:pwr" 0.000000000000000e+00
"Vn_SD:v" 0.000000000000000e+00
"Vn_SD:i" -5.107136564016772e-13
"Vn_SD:pwr" -0.000000000000000e+00
"Vn_VDD:v" 1.200000000000000e+00
"Vn_VDD:i" -2.544830862210911e-10
"Vn_VDD:pwr" -3.053797034653093e-10
"Vn_Z:v" 0.000000000000000e+00
"Vn_Z:i" -1.863875762097556e-15
"Vn_Z:pwr" -0.000000000000000e+00
"n_Z" 1.199999494867013e+00
"n_D1" 0.000000000000000e+00
"n_SD" 1.200000000000000e+00
"Vn_D1:n" -7.504670333538468e-14
"Vn_D1:p" 7.504670333538468e-14
"Vn_GND:n" -2.548656855629554e-10
"Vn_GND:p" 2.548656855629554e-10
"Vn_SD:n" 5.107136564016772e-13
"Vn_SD:p" -5.107136564016772e-13
"Vn_VDD:n" 2.544830862210911e-10
"Vn_VDD:p" -2.544830862210911e-10
"Vn_Z:n" 1.863875762097556e-15
"Vn_Z:p" -1.863875762097556e-15
"time" 2.730000000000000e-10
"Vn_D1:v" 0.000000000000000e+00
"Vn_D1:i" 7.520764810224258e-14
"Vn_D1:pwr" 0.000000000000000e+00
"Vn_GND:v" 0.000000000000000e+00
"Vn_GND:i" 2.548665056577855e-10
"Vn_GND:pwr" 0.000000000000000e+00
"Vn_SD:v" 0.000000000000000e+00
"Vn_SD:i" -5.105283038556575e-13
"Vn_SD:pwr" -0.000000000000000e+00
"Vn_VDD:v" 1.200000000000000e+00
"Vn_VDD:i" -2.544866885119450e-10
"Vn_VDD:pwr" -3.053840262143340e-10
"Vn_Z:v" 0.000000000000000e+00
"Vn_Z:i" 5.704450228659535e-16
"Vn_Z:pwr" 0.000000000000000e+00
"n_Z" 1.199999494849914e+00
"n_D1" 0.000000000000000e+00
"n_SD" 1.200000000000000e+00
"Vn_D1:n" -7.520764810224258e-14
"Vn_D1:p" 7.520764810224258e-14
"Vn_GND:n" -2.548665056577855e-10
"Vn_GND:p" 2.548665056577855e-10
"Vn_SD:n" 5.105283038556575e-13
"Vn_SD:p" -5.105283038556575e-13
"Vn_VDD:n" 2.544866885119450e-10
"Vn_VDD:p" -2.544866885119450e-10
"Vn_Z:n" -5.704450228659535e-16
"Vn_Z:p" 5.704450228659535e-16
"time" 5.850000000000002e-10
"Vn_D1:v" 0.000000000000000e+00
"Vn_D1:i" 7.515113135361366e-14
"Vn_D1:pwr" 0.000000000000000e+00
"Vn_GND:v" 0.000000000000000e+00
"Vn_GND:i" 2.548661798411170e-10
"Vn_GND:pwr" 0.000000000000000e+00
"Vn_SD:v" 0.000000000000000e+00
"Vn_SD:i" -5.105936819557121e-13
"Vn_SD:pwr" -0.000000000000000e+00
"Vn_VDD:v" 1.200000000000000e+00
"Vn_VDD:i" -2.544853382764197e-10
"Vn_VDD:pwr" -3.053824059317036e-10
"Vn_Z:v" 0.000000000000000e+00
"Vn_Z:i" -3.284838404975001e-16
"Vn_Z:pwr" -0.000000000000000e+00
"n_Z" 1.199999494856311e+00
"n_D1" 0.000000000000000e+00
"n_SD" 1.200000000000000e+00
"Vn_D1:n" -7.515113135361366e-14
"Vn_D1:p" 7.515113135361366e-14
"Vn_GND:n" -2.548661798411170e-10
"Vn_GND:p" 2.548661798411170e-10
"Vn_SD:n" 5.105936819557121e-13
"Vn_SD:p" -5.105936819557121e-13
"Vn_VDD:n" 2.544853382764197e-10
"Vn_VDD:p" -2.544853382764197e-10
"Vn_Z:n" 3.284838404975001e-16
"Vn_Z:p" -3.284838404975001e-16
"time" 1.209000000000000e-09
"Vn_D1:v" 0.000000000000000e+00
"Vn_D1:i" 7.518622649101214e-14
"Vn_D1:pwr" 0.000000000000000e+00
"Vn_GND:v" 0.000000000000000e+00
"Vn_GND:i" 2.548663431403495e-10
"Vn_GND:pwr" 0.000000000000000e+00
"Vn_SD:v" 0.000000000000000e+00
"Vn_SD:i" -5.105528716564870e-13
"Vn_SD:pwr" -0.000000000000000e+00
"Vn_VDD:v" 1.200000000000000e+00
"Vn_VDD:i" -2.544861630469734e-10
"Vn_VDD:pwr" -3.053833956563680e-10
"Vn_Z:v" 0.000000000000000e+00
"Vn_Z:i" 2.541343121567529e-16
"Vn_Z:pwr" 0.000000000000000e+00
"n_Z" 1.199999494852380e+00
"n_D1" 0.000000000000000e+00
"n_SD" 1.200000000000000e+00
"Vn_D1:n" -7.518622649101214e-14
"Vn_D1:p" 7.518622649101214e-14
"Vn_GND:n" -2.548663431403495e-10
"Vn_GND:p" 2.548663431403495e-10
"Vn_SD:n" 5.105528716564870e-13
"Vn_SD:p" -5.105528716564870e-13
"Vn_VDD:n" 2.544861630469734e-10
"Vn_VDD:p" -2.544861630469734e-10
"Vn_Z:n" -2.541343121567529e-16
"Vn_Z:p" 2.541343121567529e-16
"time" 1.989000000000000e-09
"Vn_D1:v" 0.000000000000000e+00
"Vn_D1:i" 7.515962521698353e-14
"Vn_D1:pwr" 0.000000000000000e+00
"Vn_GND:v" 0.000000000000000e+00
"Vn_GND:i" 2.548661401094833e-10
"Vn_GND:pwr" 0.000000000000000e+00
"Vn_SD:v" 0.000000000000000e+00
"Vn_SD:i" -5.105839658934397e-13
"Vn_SD:pwr" -0.000000000000000e+00
"Vn_VDD:v" 1.200000000000000e+00
"Vn_VDD:i" -2.544854463931596e-10
"Vn_VDD:pwr" -3.053825356717914e-10
"Vn_Z:v" 0.000000000000000e+00
"Vn_Z:i" -2.027611045621979e-16
"Vn_Z:pwr" -0.000000000000000e+00
"n_Z" 1.199999494855776e+00
"n_D1" 0.000000000000000e+00
"n_SD" 1.200000000000000e+00
"Vn_D1:n" -7.515962521698353e-14
"Vn_D1:p" 7.515962521698353e-14
"Vn_GND:n" -2.548661401094833e-10
"Vn_GND:p" 2.548661401094833e-10
"Vn_SD:n" 5.105839658934397e-13
"Vn_SD:p" -5.105839658934397e-13
"Vn_VDD:n" 2.544854463931596e-10
"Vn_VDD:p" -2.544854463931596e-10
"Vn_Z:n" 2.027611045621979e-16
"Vn_Z:p" -2.027611045621979e-16
"time" 2.769000000000001e-09
"Vn_D1:v" 0.000000000000000e+00
"Vn_D1:i" 7.518034074801832e-14
"Vn_D1:pwr" 0.000000000000000e+00
"Vn_GND:v" 0.000000000000000e+00
"Vn_GND:i" 2.548662220572991e-10
"Vn_GND:pwr" 0.000000000000000e+00
"Vn_SD:v" 0.000000000000000e+00
"Vn_SD:i" -5.105595907275528e-13
"Vn_SD:pwr" -0.000000000000000e+00
"Vn_VDD:v" 1.200000000000000e+00
"Vn_VDD:i" -2.544859391663422e-10
"Vn_VDD:pwr" -3.053831269996106e-10
"Vn_Z:v" 0.000000000000000e+00
"Vn_Z:i" 1.668365751917378e-16
"Vn_Z:pwr" 0.000000000000000e+00
"n_Z" 1.199999494853401e+00
"n_D1" 0.000000000000000e+00
"n_SD" 1.200000000000000e+00
"Vn_D1:n" -7.518034074801832e-14
"Vn_D1:p" 7.518034074801832e-14
"Vn_GND:n" -2.548662220572991e-10
"Vn_GND:p" 2.548662220572991e-10
"Vn_SD:n" 5.105595907275528e-13
"Vn_SD:p" -5.105595907275528e-13
"Vn_VDD:n" 2.544859391663422e-10
"Vn_VDD:p" -2.544859391663422e-10
"Vn_Z:n" -1.668365751917378e-16
"Vn_Z:p" 1.668365751917378e-16
"time" 3.000000000000000e-09
"Vn_D1:v" 0.000000000000000e+00
"Vn_D1:i" 7.516792900902424e-14
"Vn_D1:pwr" 0.000000000000000e+00
"Vn_GND:v" 0.000000000000000e+00
"Vn_GND:i" 2.548661229202459e-10
"Vn_GND:pwr" 0.000000000000000e+00
"Vn_SD:v" 0.000000000000000e+00
"Vn_SD:i" -5.105745295828074e-13
"Vn_SD:pwr" -0.000000000000000e+00
"Vn_VDD:v" 1.200000000000000e+00
"Vn_VDD:i" -2.544855747203118e-10
"Vn_VDD:pwr" -3.053826896643742e-10
"Vn_Z:v" 0.000000000000000e+00
"Vn_Z:i" -7.779731031886797e-17
"Vn_Z:pwr" -0.000000000000000e+00
"n_Z" 1.199999494855143e+00
"n_D1" 0.000000000000000e+00
"n_SD" 1.200000000000000e+00
"Vn_D1:n" -7.516792900902424e-14
"Vn_D1:p" 7.516792900902424e-14
"Vn_GND:n" -2.548661229202459e-10
"Vn_GND:p" 2.548661229202459e-10
"Vn_SD:n" 5.105745295828074e-13
"Vn_SD:p" -5.105745295828074e-13
"Vn_VDD:n" 2.544855747203118e-10
"Vn_VDD:p" -2.544855747203118e-10
"Vn_Z:n" 7.779731031886797e-17
"Vn_Z:p" -7.779731031886797e-17
"time" 3.010000000000000e-09
"Vn_D1:v" 0.000000000000000e+00
"Vn_D1:i" 7.516748011944929e-14
"Vn_D1:pwr" 0.000000000000000e+00
"Vn_GND:v" 0.000000000000000e+00
"Vn_GND:i" 2.548661295042276e-10
"Vn_GND:pwr" 0.000000000000000e+00
"Vn_SD:v" 0.000000000000000e+00
"Vn_SD:i" -5.105743945345452e-13
"Vn_SD:pwr" -0.000000000000000e+00
"Vn_VDD:v" 1.200000000000000e+00
"Vn_VDD:i" -2.544855937597540e-10
"Vn_VDD:pwr" -3.053827125117047e-10
"Vn_Z:v" 0.000000000000000e+00
"Vn_Z:i" -6.043175218681836e-17
"Vn_Z:pwr" -0.000000000000000e+00
"n_Z" 1.199999494855041e+00
"n_D1" 0.000000000000000e+00
"n_SD" 1.200000000000000e+00
"Vn_D1:n" -7.516748011944929e-14
"Vn_D1:p" 7.516748011944929e-14
"Vn_GND:n" -2.548661295042276e-10
"Vn_GND:p" 2.548661295042276e-10
"Vn_SD:n" 5.105743945345452e-13
"Vn_SD:p" -5.105743945345452e-13
"Vn_VDD:n" 2.544855937597540e-10
"Vn_VDD:p" -2.544855937597540e-10
"Vn_Z:n" 6.043175218681836e-17
"Vn_Z:p" -6.043175218681836e-17
"time" 3.030000000000000e-09
"Vn_D1:v" 0.000000000000000e+00
"Vn_D1:i" 7.516849503180497e-14
"Vn_D1:pwr" 0.000000000000000e+00
"Vn_GND:v" 0.000000000000000e+00
"Vn_GND:i" 2.548661354913209e-10
"Vn_GND:pwr" 0.000000000000000e+00
"Vn_SD:v" 0.000000000000000e+00
"Vn_SD:i" -5.105734009248168e-13
"Vn_SD:pwr" -0.000000000000000e+00
"Vn_VDD:v" 1.200000000000000e+00
"Vn_VDD:i" -2.544856219378669e-10
"Vn_VDD:pwr" -3.053827463254403e-10
"Vn_Z:v" 0.000000000000000e+00
"Vn_Z:i" -4.014791675844689e-17
"Vn_Z:pwr" -0.000000000000000e+00
"n_Z" 1.199999494854905e+00
"n_D1" 0.000000000000000e+00
"n_SD" 1.200000000000000e+00
"Vn_D1:n" -7.516849503180497e-14
"Vn_D1:p" 7.516849503180497e-14
"Vn_GND:n" -2.548661354913209e-10
"Vn_GND:p" 2.548661354913209e-10
"Vn_SD:n" 5.105734009248168e-13
"Vn_SD:p" -5.105734009248168e-13
"Vn_VDD:n" 2.544856219378669e-10
"Vn_VDD:p" -2.544856219378669e-10
"Vn_Z:n" 4.014791675844689e-17
"Vn_Z:p" -4.014791675844689e-17
"time" 3.070000000000001e-09
"Vn_D1:v" 0.000000000000000e+00
"Vn_D1:i" 7.517025738272349e-14
"Vn_D1:pwr" 0.000000000000000e+00
"Vn_GND:v" 0.000000000000000e+00
"Vn_GND:i" 2.548661426665473e-10
"Vn_GND:pwr" 0.000000000000000e+00
"Vn_SD:v" 0.000000000000000e+00
"Vn_SD:i" -5.105714417572368e-13
"Vn_SD:pwr" -0.000000000000000e+00
"Vn_VDD:v" 1.200000000000000e+00
"Vn_VDD:i" -2.544856616733328e-10
"Vn_VDD:pwr" -3.053827940079994e-10
"Vn_Z:v" 0.000000000000000e+00
"Vn_Z:i" -1.371185089279298e-17
"Vn_Z:pwr" -0.000000000000000e+00
"n_Z" 1.199999494854722e+00
"n_D1" 0.000000000000000e+00
"n_SD" 1.200000000000000e+00
"Vn_D1:n" -7.517025738272349e-14
"Vn_D1:p" 7.517025738272349e-14
"Vn_GND:n" -2.548661426665473e-10
"Vn_GND:p" 2.548661426665473e-10
"Vn_SD:n" 5.105714417572368e-13
"Vn_SD:p" -5.105714417572368e-13
"Vn_VDD:n" 2.544856616733328e-10
"Vn_VDD:p" -2.544856616733328e-10
"Vn_Z:n" 1.371185089279298e-17
"Vn_Z:p" -1.371185089279298e-17
"time" 3.150000000000003e-09
"Vn_D1:v" 0.000000000000000e+00
"Vn_D1:i" 7.517139782683051e-14
"Vn_D1:pwr" 0.000000000000000e+00
"Vn_GND:v" 0.000000000000000e+00
"Vn_GND:i" 2.548661424337156e-10
"Vn_GND:pwr" 0.000000000000000e+00
"Vn_SD:v" 0.000000000000000e+00
"Vn_SD:i" -5.105702827679165e-13
"Vn_SD:pwr" -0.000000000000000e+00
"Vn_VDD:v" 1.200000000000000e+00
"Vn_VDD:i" -2.544856761864124e-10
"Vn_VDD:pwr" -3.053828114236948e-10
"Vn_Z:v" 0.000000000000000e+00
"Vn_Z:i" 2.352199836937467e-18
"Vn_Z:pwr" 0.000000000000000e+00
"n_Z" 1.199999494854645e+00
"n_D1" 0.000000000000000e+00
"n_SD" 1.200000000000000e+00
"Vn_D1:n" -7.517139782683051e-14
"Vn_D1:p" 7.517139782683051e-14
"Vn_GND:n" -2.548661424337156e-10
"Vn_GND:p" 2.548661424337156e-10
"Vn_SD:n" 5.105702827679165e-13
"Vn_SD:p" -5.105702827679165e-13
"Vn_VDD:n" 2.544856761864124e-10
"Vn_VDD:p" -2.544856761864124e-10
"Vn_Z:n" -2.352199836937467e-18
"Vn_Z:p" 2.352199836937467e-18
"time" 3.310000000000005e-09
"Vn_D1:v" 0.000000000000000e+00
"Vn_D1:i" 7.517104542485257e-14
"Vn_D1:pwr" 0.000000000000000e+00
"Vn_GND:v" 0.000000000000000e+00
"Vn_GND:i" 2.548661327370380e-10
"Vn_GND:pwr" 0.000000000000000e+00
"Vn_SD:v" 0.000000000000000e+00
"Vn_SD:i" -5.105703830211939e-13
"Vn_SD:pwr" -0.000000000000000e+00
"Vn_VDD:v" 1.200000000000000e+00
"Vn_VDD:i" -2.544856662966420e-10
"Vn_VDD:pwr" -3.053827995559704e-10
"Vn_Z:v" 0.000000000000000e+00
"Vn_Z:i" 1.404154787645275e-20
"Vn_Z:pwr" 0.000000000000000e+00
"n_Z" 1.199999494854677e+00
"n_D1" 0.000000000000000e+00
"n_SD" 1.200000000000000e+00
"Vn_D1:n" -7.517104542485257e-14
"Vn_D1:p" 7.517104542485257e-14
"Vn_GND:n" -2.548661327370380e-10
"Vn_GND:p" 2.548661327370380e-10
"Vn_SD:n" 5.105703830211939e-13
"Vn_SD:p" -5.105703830211939e-13
"Vn_VDD:n" 2.544856662966420e-10
"Vn_VDD:p" -2.544856662966420e-10
"Vn_Z:n" -1.404154787645275e-20
"Vn_Z:p" 1.404154787645275e-20
"time" 3.630000000000011e-09
"Vn_D1:v" 0.000000000000000e+00
"Vn_D1:i" 7.517166288743216e-14
"Vn_D1:pwr" 0.000000000000000e+00
"Vn_GND:v" 0.000000000000000e+00
"Vn_GND:i" 2.548661159196803e-10
"Vn_GND:pwr" 0.000000000000000e+00
"Vn_SD:v" 0.000000000000000e+00
"Vn_SD:i" -5.105700894712927e-13
"Vn_SD:pwr" -0.000000000000000e+00
"Vn_VDD:v" 1.200000000000000e+00
"Vn_VDD:i" -2.544856514679235e-10
"Vn_VDD:pwr" -3.053827817615082e-10
"Vn_Z:v" 0.000000000000000e+00
"Vn_Z:i" 3.329678016342107e-18
"Vn_Z:pwr" 0.000000000000000e+00
"n_Z" 1.199999494854768e+00
"n_D1" 0.000000000000000e+00
"n_SD" 1.200000000000000e+00
"Vn_D1:n" -7.517166288743216e-14
"Vn_D1:p" 7.517166288743216e-14
"Vn_GND:n" -2.548661159196803e-10
"Vn_GND:p" 2.548661159196803e-10
"Vn_SD:n" 5.105700894712927e-13
"Vn_SD:p" -5.105700894712927e-13
"Vn_VDD:n" 2.544856514679235e-10
"Vn_VDD:p" -2.544856514679235e-10
"Vn_Z:n" -3.329678016342107e-18
"Vn_Z:p" 3.329678016342107e-18
"time" 4.270000000000022e-09
"Vn_D1:v" 0.000000000000000e+00
"Vn_D1:i" 7.517080641224251e-14
"Vn_D1:pwr" 0.000000000000000e+00
"Vn_GND:v" 0.000000000000000e+00
"Vn_GND:i" 2.548660754701825e-10
"Vn_GND:pwr" 0.000000000000000e+00
"Vn_SD:v" 0.000000000000000e+00
"Vn_SD:i" -5.105705922245148e-13
"Vn_SD:pwr" -0.000000000000000e+00
"Vn_VDD:v" 1.200000000000000e+00
"Vn_VDD:i" -2.544856113025109e-10
"Vn_VDD:pwr" -3.053827335630130e-10
"Vn_Z:v" 0.000000000000000e+00
"Vn_Z:i" -7.191358338326985e-19
"Vn_Z:pwr" -0.000000000000000e+00
"n_Z" 1.199999494854909e+00
"n_D1" 0.000000000000000e+00
"n_SD" 1.200000000000000e+00
"Vn_D1:n" -7.517080641224251e-14
"Vn_D1:p" 7.517080641224251e-14
"Vn_GND:n" -2.548660754701825e-10
"Vn_GND:p" 2.548660754701825e-10
"Vn_SD:n" 5.105705922245148e-13
"Vn_SD:p" -5.105705922245148e-13
"Vn_VDD:n" 2.544856113025109e-10
"Vn_VDD:p" -2.544856113025109e-10
"Vn_Z:n" 7.191358338326985e-19
"Vn_Z:p" -7.191358338326985e-19
"time" 5.050000000000022e-09
"Vn_D1:v" 0.000000000000000e+00
"Vn_D1:i" 7.517178583411848e-14
"Vn_D1:pwr" 0.000000000000000e+00
"Vn_GND:v" 0.000000000000000e+00
"Vn_GND:i" 2.548660340934368e-10
"Vn_GND:pwr" 0.000000000000000e+00
"Vn_SD:v" 0.000000000000000e+00
"Vn_SD:i" -5.105699874553055e-13
"Vn_SD:pwr" -0.000000000000000e+00
"Vn_VDD:v" 1.200000000000000e+00
"Vn_VDD:i" -2.544855751018326e-10
"Vn_VDD:pwr" -3.053826901221991e-10
"Vn_Z:v" 0.000000000000000e+00
"Vn_Z:i" 3.805595789770066e-18
"Vn_Z:pwr" 0.000000000000000e+00
"n_Z" 1.199999494855113e+00
"n_D1" 0.000000000000000e+00
"n_SD" 1.200000000000000e+00
"Vn_D1:n" -7.517178583411848e-14
"Vn_D1:p" 7.517178583411848e-14
"Vn_GND:n" -2.548660340934368e-10
"Vn_GND:p" 2.548660340934368e-10
"Vn_SD:n" 5.105699874553055e-13
"Vn_SD:p" -5.105699874553055e-13
"Vn_VDD:n" 2.544855751018326e-10
"Vn_VDD:p" -2.544855751018326e-10
"Vn_Z:n" -3.805595789770066e-18
"Vn_Z:p" 3.805595789770066e-18
"time" 5.830000000000022e-09
"Vn_D1:v" 0.000000000000000e+00
"Vn_D1:i" 7.517071677096769e-14
"Vn_D1:pwr" 0.000000000000000e+00
"Vn_GND:v" 0.000000000000000e+00
"Vn_GND:i" 2.548659845054546e-10
"Vn_GND:pwr" 0.000000000000000e+00
"Vn_SD:v" 0.000000000000000e+00
"Vn_SD:i" -5.105706576245778e-13
"Vn_SD:pwr" -0.000000000000000e+00
"Vn_VDD:v" 1.200000000000000e+00
"Vn_VDD:i" -2.544855143855679e-10
"Vn_VDD:pwr" -3.053826172626815e-10
"Vn_Z:v" 0.000000000000000e+00
"Vn_Z:i" -7.471979008255899e-19
"Vn_Z:pwr" -0.000000000000000e+00
"n_Z" 1.199999494855315e+00
"n_D1" 0.000000000000000e+00
"n_SD" 1.200000000000000e+00
"Vn_D1:n" -7.517071677096769e-14
"Vn_D1:p" 7.517071677096769e-14
"Vn_GND:n" -2.548659845054546e-10
"Vn_GND:p" 2.548659845054546e-10
"Vn_SD:n" 5.105706576245778e-13
"Vn_SD:p" -5.105706576245778e-13
"Vn_VDD:n" 2.544855143855679e-10
"Vn_VDD:p" -2.544855143855679e-10
"Vn_Z:n" 7.471979008255899e-19
"Vn_Z:p" -7.471979008255899e-19
"time" 6.010000000000000e-09
"Vn_D1:v" 0.000000000000000e+00
"Vn_D1:i" 7.517188338506923e-14
"Vn_D1:pwr" 0.000000000000000e+00
"Vn_GND:v" 0.000000000000000e+00
"Vn_GND:i" 2.548659789994693e-10
"Vn_GND:pwr" 0.000000000000000e+00
"Vn_SD:v" 0.000000000000000e+00
"Vn_SD:i" -5.105700158577559e-13
"Vn_SD:pwr" -0.000000000000000e+00
"Vn_VDD:v" 1.200000000000000e+00
"Vn_VDD:i" -2.544855165715813e-10
"Vn_VDD:pwr" -3.053826198858975e-10
"Vn_Z:v" 0.000000000000000e+00
"Vn_Z:i" 3.657144903305188e-18
"Vn_Z:pwr" 0.000000000000000e+00
"n_Z" 1.199999494855360e+00
"n_D1" 0.000000000000000e+00
"n_SD" 1.200000000000000e+00
"Vn_D1:n" -7.517188338506923e-14
"Vn_D1:p" 7.517188338506923e-14
"Vn_GND:n" -2.548659789994693e-10
"Vn_GND:p" 2.548659789994693e-10
"Vn_SD:n" 5.105700158577559e-13
"Vn_SD:p" -5.105700158577559e-13
"Vn_VDD:n" 2.544855165715813e-10
"Vn_VDD:p" -2.544855165715813e-10
"Vn_Z:n" -3.657144903305188e-18
"Vn_Z:p" 3.657144903305188e-18
"time" 6.019999550200000e-09
"Vn_D1:v" 0.000000000000000e+00
"Vn_D1:i" 7.517120328378932e-14
"Vn_D1:pwr" 0.000000000000000e+00
"Vn_GND:v" 0.000000000000000e+00
"Vn_GND:i" 2.548659761082889e-10
"Vn_GND:pwr" 0.000000000000000e+00
"Vn_SD:v" 0.000000000000000e+00
"Vn_SD:i" -5.105700683352404e-13
"Vn_SD:pwr" -0.000000000000000e+00
"Vn_VDD:v" 1.200000000000000e+00
"Vn_VDD:i" -2.544855102128926e-10
"Vn_VDD:pwr" -3.053826122554711e-10
"Vn_Z:v" 0.000000000000000e+00
"Vn_Z:i" 1.463674085968510e-18
"Vn_Z:pwr" 0.000000000000000e+00
"n_Z" 1.199999494855362e+00
"n_D1" 0.000000000000000e+00
"n_SD" 1.200000000000000e+00
"Vn_D1:n" -7.517120328378932e-14
"Vn_D1:p" 7.517120328378932e-14
"Vn_GND:n" -2.548659761082889e-10
"Vn_GND:p" 2.548659761082889e-10
"Vn_SD:n" 5.105700683352404e-13
"Vn_SD:p" -5.105700683352404e-13
"Vn_VDD:n" 2.544855102128926e-10
"Vn_VDD:p" -2.544855102128926e-10
"Vn_Z:n" -1.463674085968510e-18
"Vn_Z:p" 1.463674085968510e-18
"time" 6.020000000000000e-09
"Vn_D1:v" 0.000000000000000e+00
"Vn_D1:i" -6.134735486742604e-07
"Vn_D1:pwr" -0.000000000000000e+00
"Vn_GND:v" 0.000000000000000e+00
"Vn_GND:i" 1.103289226131214e-07
"Vn_GND:pwr" 0.000000000000000e+00
"Vn_SD:v" 0.000000000000000e+00
"Vn_SD:i" 5.431340504805905e-11
"Vn_SD:pwr" 0.000000000000000e+00
"Vn_VDD:v" 1.200000000000000e+00
"Vn_VDD:i" 5.030897689001858e-07
"Vn_VDD:pwr" 6.037077226802229e-07
"Vn_Z:v" 0.000000000000000e+00
"Vn_Z:i" 4.901065714571381e-13
"Vn_Z:pwr" 0.000000000000000e+00
"n_Z" 1.199999494855399e+00
"n_D1" 2.456136039079392e-07
"n_SD" 1.200000000000000e+00
"Vn_D1:n" 6.134735486742604e-07
"Vn_D1:p" -6.134735486742604e-07
"Vn_GND:n" -1.103289226131214e-07
"Vn_GND:p" 1.103289226131214e-07
"Vn_SD:n" -5.431340504805905e-11
"Vn_SD:p" 5.431340504805905e-11
"Vn_VDD:n" -5.030897689001858e-07
"Vn_VDD:p" 5.030897689001858e-07
"Vn_Z:n" -4.901065714571381e-13
"Vn_Z:p" 4.901065714571381e-13
"time" 6.020000899600001e-09
"Vn_D1:v" 0.000000000000000e+00
"Vn_D1:i" -6.147226909965560e-07
"Vn_D1:pwr" -0.000000000000000e+00
"Vn_GND:v" 0.000000000000000e+00
"Vn_GND:i" 1.105449047303717e-07
"Vn_GND:pwr" 0.000000000000000e+00
"Vn_SD:v" 0.000000000000000e+00
"Vn_SD:i" 1.633532300459507e-10
"Vn_SD:pwr" 0.000000000000000e+00
"Vn_VDD:v" 1.200000000000000e+00
"Vn_VDD:i" 5.040109979441730e-07
"Vn_VDD:pwr" 6.048131975330075e-07
"Vn_Z:v" 0.000000000000000e+00
"Vn_Z:i" 3.380075344713775e-12
"Vn_Z:pwr" 0.000000000000000e+00
"n_Z" 1.199999494855915e+00
"n_D1" 7.368408117238176e-07
"n_SD" 1.200000000000000e+00
"Vn_D1:n" 6.147226909965560e-07
"Vn_D1:p" -6.147226909965560e-07
"Vn_GND:n" -1.105449047303717e-07
"Vn_GND:p" 1.105449047303717e-07
"Vn_SD:n" -1.633532300459507e-10
"Vn_SD:p" 1.633532300459507e-10
"Vn_VDD:n" -5.040109979441730e-07
"Vn_VDD:p" 5.040109979441730e-07
"Vn_Z:n" -3.380075344713775e-12
"Vn_Z:p" 3.380075344713775e-12
"time" 6.020002698800002e-09
"Vn_D1:v" 0.000000000000000e+00
"Vn_D1:i" -6.172051185076895e-07
"Vn_D1:pwr" -0.000000000000000e+00
"Vn_GND:v" 0.000000000000000e+00
"Vn_GND:i" 1.109743170559375e-07
"Vn_GND:pwr" 0.000000000000000e+00
"Vn_SD:v" 0.000000000000000e+00
"Vn_SD:i" 3.802183837541041e-10
"Vn_SD:pwr" 0.000000000000000e+00
"Vn_VDD:v" 1.200000000000000e+00
"Vn_VDD:i" 5.058376475237334e-07
"Vn_VDD:pwr" 6.070051770284800e-07
"Vn_Z:v" 0.000000000000000e+00
"Vn_Z:i" 1.288057139240403e-11
"Vn_Z:pwr" 0.000000000000000e+00
"n_Z" 1.199999494858394e+00
"n_D1" 1.719295227355574e-06
"n_SD" 1.200000000000000e+00
"Vn_D1:n" 6.172051185076895e-07
"Vn_D1:p" -6.172051185076895e-07
"Vn_GND:n" -1.109743170559375e-07
"Vn_GND:p" 1.109743170559375e-07
"Vn_SD:n" -3.802183837541041e-10
"Vn_SD:p" 3.802183837541041e-10
"Vn_VDD:n" -5.058376475237334e-07
"Vn_VDD:p" 5.058376475237334e-07
"Vn_Z:n" -1.288057139240403e-11
"Vn_Z:p" 1.288057139240403e-11
"time" 6.020006297200004e-09
"Vn_D1:v" 0.000000000000000e+00
"Vn_D1:i" -6.220761719092372e-07
"Vn_D1:pwr" -0.000000000000000e+00
"Vn_GND:v" 0.000000000000000e+00
"Vn_GND:i" 1.118179772054720e-07
"Vn_GND:pwr" 0.000000000000000e+00
"Vn_SD:v" 0.000000000000000e+00
"Vn_SD:i" 8.067301728603968e-10
"Vn_SD:pwr" 0.000000000000000e+00
"Vn_VDD:v" 1.200000000000000e+00
"Vn_VDD:i" 5.093983388769710e-07
"Vn_VDD:pwr" 6.112780066523651e-07
"Vn_Z:v" 0.000000000000000e+00
"Vn_Z:i" 5.307010223218388e-11
"Vn_Z:pwr" 0.000000000000000e+00
"n_Z" 1.199999494878506e+00
"n_D1" 3.684204058619088e-06
"n_SD" 1.200000000000000e+00
"Vn_D1:n" 6.220761719092372e-07
"Vn_D1:p" -6.220761719092372e-07
"Vn_GND:n" -1.118179772054720e-07
"Vn_GND:p" 1.118179772054720e-07
"Vn_SD:n" -8.067301728603968e-10
"Vn_SD:p" 8.067301728603968e-10
"Vn_VDD:n" -5.093983388769710e-07
"Vn_VDD:p" 5.093983388769710e-07
"Vn_Z:n" -5.307010223218388e-11
"Vn_Z:p" 5.307010223218388e-11
"time" 6.020013494000009e-09
"Vn_D1:v" 0.000000000000000e+00
"Vn_D1:i" -6.314573121869382e-07
"Vn_D1:pwr" -0.000000000000000e+00
"Vn_GND:v" 0.000000000000000e+00
"Vn_GND:i" 1.134459634753594e-07
"Vn_GND:pwr" 0.000000000000000e+00
"Vn_SD:v" 0.000000000000000e+00
"Vn_SD:i" 1.631457132905266e-09
"Vn_SD:pwr" 0.000000000000000e+00
"Vn_VDD:v" 1.200000000000000e+00
"Vn_VDD:i" 5.161720082660196e-07
"Vn_VDD:pwr" 6.194064099192236e-07
"Vn_Z:v" 0.000000000000000e+00
"Vn_Z:i" 2.078291275483388e-10
"Vn_Z:pwr" 0.000000000000000e+00
"n_Z" 1.199999495037628e+00
"n_D1" 7.614021721146115e-06
"n_SD" 1.200000000000000e+00
"Vn_D1:n" 6.314573121869382e-07
"Vn_D1:p" -6.314573121869382e-07
"Vn_GND:n" -1.134459634753594e-07
"Vn_GND:p" 1.134459634753594e-07
"Vn_SD:n" -1.631457132905266e-09
"Vn_SD:p" 1.631457132905266e-09
"Vn_VDD:n" -5.161720082660196e-07
"Vn_VDD:p" 5.161720082660196e-07
"Vn_Z:n" -2.078291275483388e-10
"Vn_Z:p" 2.078291275483388e-10
"time" 6.020027887600018e-09
"Vn_D1:v" 0.000000000000000e+00
"Vn_D1:i" -6.488790580209296e-07
"Vn_D1:pwr" -0.000000000000000e+00
"Vn_GND:v" 0.000000000000000e+00
"Vn_GND:i" 1.164756503400775e-07
"Vn_GND:pwr" 0.000000000000000e+00
"Vn_SD:v" 0.000000000000000e+00
"Vn_SD:i" 3.172694929160321e-09
"Vn_SD:pwr" 0.000000000000000e+00
"Vn_VDD:v" 1.200000000000000e+00
"Vn_VDD:i" 5.284839361024165e-07
"Vn_VDD:pwr" 6.341807233228998e-07
"Vn_Z:v" 0.000000000000000e+00
"Vn_Z:i" 7.467208430163067e-10
"Vn_Z:pwr" 0.000000000000000e+00
"n_Z" 1.199999496201984e+00
"n_D1" 1.547365704620017e-05
"n_SD" 1.200000000000000e+00
"Vn_D1:n" 6.488790580209296e-07
"Vn_D1:p" -6.488790580209296e-07
"Vn_GND:n" -1.164756503400775e-07
"Vn_GND:p" 1.164756503400775e-07
"Vn_SD:n" -3.172694929160321e-09
"Vn_SD:p" 3.172694929160321e-09
"Vn_VDD:n" -5.284839361024165e-07
"Vn_VDD:p" 5.284839361024165e-07
"Vn_Z:n" -7.467208430163067e-10
"Vn_Z:p" 7.467208430163067e-10
"time" 6.020056674800035e-09
"Vn_D1:v" 0.000000000000000e+00
"Vn_D1:i" -6.668232579380587e-07
"Vn_D1:pwr" -0.000000000000000e+00
"Vn_GND:v" 0.000000000000000e+00
"Vn_GND:i" 1.217700838070806e-07
"Vn_GND:pwr" 0.000000000000000e+00
"Vn_SD:v" 0.000000000000000e+00
"Vn_SD:i" 5.870354439911644e-09
"Vn_SD:pwr" 0.000000000000000e+00
"Vn_VDD:v" 1.200000000000000e+00
"Vn_VDD:i" 5.367994427418206e-07
"Vn_VDD:pwr" 6.441593312901848e-07
"Vn_Z:v" 0.000000000000000e+00
"Vn_Z:i" 2.383322973742511e-09
"Vn_Z:pwr" 0.000000000000000e+00
"n_Z" 1.199999503838018e+00
"n_D1" 3.119292769630828e-05
"n_SD" 1.200000000000000e+00
"Vn_D1:n" 6.668232579380587e-07
"Vn_D1:p" -6.668232579380587e-07
"Vn_GND:n" -1.217700838070806e-07
"Vn_GND:p" 1.217700838070806e-07
"Vn_SD:n" -5.870354439911644e-09
"Vn_SD:p" 5.870354439911644e-09
"Vn_VDD:n" -5.367994427418206e-07
"Vn_VDD:p" 5.367994427418206e-07
"Vn_Z:n" -2.383322973742511e-09
"Vn_Z:p" 2.383322973742511e-09
"time" 6.020114249200071e-09
"Vn_D1:v" 0.000000000000000e+00
"Vn_D1:i" -7.160309248967424e-07
"Vn_D1:pwr" -0.000000000000000e+00
"Vn_GND:v" 0.000000000000000e+00
"Vn_GND:i" 1.298355965781273e-07
"Vn_GND:pwr" 0.000000000000000e+00
"Vn_SD:v" 0.000000000000000e+00
"Vn_SD:i" 1.004064814565884e-08
"Vn_SD:pwr" 0.000000000000000e+00
"Vn_VDD:v" 1.200000000000000e+00
"Vn_VDD:i" 5.697366456950516e-07
"Vn_VDD:pwr" 6.836839748340619e-07
"Vn_Z:v" 0.000000000000000e+00
"Vn_Z:i" 6.417978590102670e-09
"Vn_Z:pwr" 0.000000000000000e+00
"n_Z" 1.199999546781210e+00
"n_D1" 6.263146899652450e-05
"n_SD" 1.200000000000000e+00
"Vn_D1:n" 7.160309248967424e-07
"Vn_D1:p" -7.160309248967424e-07
"Vn_GND:n" -1.298355965781273e-07
"Vn_GND:p" 1.298355965781273e-07
"Vn_SD:n" -1.004064814565884e-08
"Vn_SD:p" 1.004064814565884e-08
"Vn_VDD:n" -5.697366456950516e-07
"Vn_VDD:p" 5.697366456950516e-07
"Vn_Z:n" -6.417978590102670e-09
"Vn_Z:p" 6.417978590102670e-09
"time" 6.020229398000143e-09
"Vn_D1:v" 0.000000000000000e+00
"Vn_D1:i" -7.609127092505105e-07
"Vn_D1:pwr" -0.000000000000000e+00
"Vn_GND:v" 0.000000000000000e+00
"Vn_GND:i" 1.395409706230325e-07
"Vn_GND:pwr" 0.000000000000000e+00
"Vn_SD:v" 0.000000000000000e+00
"Vn_SD:i" 1.515272061151081e-08
"Vn_SD:pwr" 0.000000000000000e+00