HEADER
"PSFversion" "1.00"
"simulator" "spectre"
"version" "10.1.1.164.isr11"
"date" "3:01:57 PM, Fri Oct 17, 2014"
"design" "* Spectre Timing Acquisition"
"analysis type" "tran"
"analysis name" "transient1-006_transient1"
"analysis description" "Transient Analysis `transient1-006_transient1': time = (0 s -> 39 ns)"
"xVecSorted" "ascending"
"tolerance.relative" 0.00100000
"start" 0.00000
"outputstart" 0.00000
"stop" 3.90000e-08
"step" 3.90000e-11
"maxstep" 7.80000e-10
"ic" "all"
"useprevic" "no"
"skipdc" "no"
"reltol" 0.00100000
"abstol(V)" 1.00000e-06
"abstol(I)" 1.00000e-12
"temp" 25.0000
"tnom" 27.0000
"tempeffects" "all"
"errpreset" "moderate"
"method" "traponly"
"lteratio" 3.50000
"relref" "sigglobal"
"cmin" 0.00000
"gmin" 1.00000e-12
TYPE
"sweep" FLOAT DOUBLE PROP(
"key" "sweep"
)
"Tau" FLOAT DOUBLE PROP(
"units" "N*m"
"key" "node"
"tolerance" 1.00000e-06
)
"Alpha" FLOAT DOUBLE PROP(
"units" "rads/s^2"
"key" "node"
"tolerance" 1.00000e-06
)
"Omega" FLOAT DOUBLE PROP(
"units" "rads/s"
"key" "node"
"tolerance" 1.00000e-06
)
"Theta" FLOAT DOUBLE PROP(
"units" "rads"
"key" "node"
"tolerance" 1.00000e-06
)
"F" FLOAT DOUBLE PROP(
"units" "N"
"key" "node"
"tolerance" 1.00000e-06
)
"Imp" FLOAT DOUBLE PROP(
"units" "m/s^3"
"key" "node"
"tolerance" 1.00000e-06
)
"Acc" FLOAT DOUBLE PROP(
"units" "m/s^2"
"key" "node"
"tolerance" 1.00000e-06
)
"Vel" FLOAT DOUBLE PROP(
"units" "m/s"
"key" "node"
"tolerance" 1.00000e-06
)
"Pos" FLOAT DOUBLE PROP(
"units" "m"
"key" "node"
"tolerance" 1.00000e-06
)
"Phi" FLOAT DOUBLE PROP(
"units" "Wb"
"key" "node"
"tolerance" 1.00000e-09
)
"Q" FLOAT DOUBLE PROP(
"units" "coul"
"key" "node"
"tolerance" 1.00000e-14
)
"V" FLOAT DOUBLE PROP(
"units" "V"
"key" "node"
"tolerance" 1.00000e-06
)
"I" FLOAT DOUBLE PROP(
"units" "A"
"key" "branch"
"tolerance" 1.00000e-12
)
"MMF" FLOAT DOUBLE PROP(
"units" "A*turn"
"key" "node"
"tolerance" 1.00000e-12
)
"Wb" FLOAT DOUBLE PROP(
"units" "Wb"
"key" "node"
"tolerance" 1.00000e-09
)
"Temp" FLOAT DOUBLE PROP(
"units" "C"
"key" "node"
"tolerance" 0.000100000
)
"Pwr" FLOAT DOUBLE PROP(
"units" "W"
"key" "node"
"tolerance" 1.00000e-09
)
"U" FLOAT DOUBLE PROP(
"units" ""
"key" "node"
"tolerance" 1.00000e-06
)
"V/Sec" FLOAT DOUBLE PROP(
"units" "V/s"
"key" "node"
"tolerance" 0.000100000
)
"I/Sec" FLOAT DOUBLE PROP(
"units" "A/s"
"key" "node"
"tolerance" 1.00000e-06
)
"1/Sec" FLOAT DOUBLE PROP(
"units" "1/s"
"key" "node"
"tolerance" 0.000100000
)
"HOD" FLOAT DOUBLE PROP(
"units" ""
"key" "node"
"tolerance" 0.0100000
)
"A" FLOAT DOUBLE PROP(
"key" "inst"
)
"W" FLOAT DOUBLE PROP(
"key" "inst"
)
SWEEP
"time" "sweep" PROP(
"sweep_direction" 0
"units" "s"
"plot" 0
"grid" 1
)
TRACE
"Vn_D1:v" "V" PROP(
"units" "V"
)
"Vn_D1:i" "A" PROP(
"units" "A"
)
"Vn_D1:pwr" "W" PROP(
"units" "W"
)
"Vn_GND:v" "V" PROP(
"units" "V"
)
"Vn_GND:i" "A" PROP(
"units" "A"
)
"Vn_GND:pwr" "W" PROP(
"units" "W"
)
"Vn_SD:v" "V" PROP(
"units" "V"
)
"Vn_SD:i" "A" PROP(
"units" "A"
)
"Vn_SD:pwr" "W" PROP(
"units" "W"
)
"Vn_VDD:v" "V" PROP(
"units" "V"
)
"Vn_VDD:i" "A" PROP(
"units" "A"
)
"Vn_VDD:pwr" "W" PROP(
"units" "W"
)
"Vn_Z:v" "V" PROP(
"units" "V"
)
"Vn_Z:i" "A" PROP(
"units" "A"
)
"Vn_Z:pwr" "W" PROP(
"units" "W"
)
"n_Z" "V"
"n_D1" "V"
"n_SD" "V"
"Vn_D1:n" "I"
"Vn_D1:p" "I"
"Vn_GND:n" "I"
"Vn_GND:p" "I"
"Vn_SD:n" "I"
"Vn_SD:p" "I"
"Vn_VDD:n" "I"
"Vn_VDD:p" "I"
"Vn_Z:n" "I"
"Vn_Z:p" "I"
VALUE
"time" 0.000000000000000e+00
"Vn_D1:v" 0.000000000000000e+00
"Vn_D1:i" 7.517119452868272e-14
"Vn_D1:pwr" 0.000000000000000e+00
"Vn_GND:v" 0.000000000000000e+00
"Vn_GND:i" 2.548493107913160e-10
"Vn_GND:pwr" 0.000000000000000e+00
"Vn_SD:v" 0.000000000000000e+00
"Vn_SD:i" -5.105704018311277e-13
"Vn_SD:pwr" -0.000000000000000e+00
"Vn_VDD:v" 1.200000000000000e+00
"Vn_VDD:i" -2.544688430803609e-10
"Vn_VDD:pwr" -3.053626116964331e-10
"Vn_Z:v" 0.000000000000000e+00
"Vn_Z:i" 0.000000000000000e+00
"Vn_Z:pwr" 0.000000000000000e+00
"n_Z" 1.199999494927445e+00
"n_D1" 0.000000000000000e+00
"n_SD" 1.200000000000000e+00
"Vn_D1:n" -7.517119452868272e-14
"Vn_D1:p" 7.517119452868272e-14
"Vn_GND:n" -2.548493107913160e-10
"Vn_GND:p" 2.548493107913160e-10
"Vn_SD:n" 5.105704018311277e-13
"Vn_SD:p" -5.105704018311277e-13
"Vn_VDD:n" 2.544688430803609e-10
"Vn_VDD:p" -2.544688430803609e-10
"Vn_Z:n" 0.000000000000000e+00
"Vn_Z:p" 0.000000000000000e+00
"time" 3.900000000000000e-11
"Vn_D1:v" 0.000000000000000e+00
"Vn_D1:i" 7.486989562226220e-14
"Vn_D1:pwr" 0.000000000000000e+00
"Vn_GND:v" 0.000000000000000e+00
"Vn_GND:i" 2.548643843515844e-10
"Vn_GND:pwr" 0.000000000000000e+00
"Vn_SD:v" 0.000000000000000e+00
"Vn_SD:i" -5.109476834452800e-13
"Vn_SD:pwr" -0.000000000000000e+00
"Vn_VDD:v" 1.200000000000000e+00
"Vn_VDD:i" -2.544780290247757e-10
"Vn_VDD:pwr" -3.053736348297308e-10
"Vn_Z:v" 0.000000000000000e+00
"Vn_Z:i" -5.209034646454739e-15
"Vn_Z:pwr" -0.000000000000000e+00
"n_Z" 1.199999494891167e+00
"n_D1" 0.000000000000000e+00
"n_SD" 1.200000000000000e+00
"Vn_D1:n" -7.486989562226220e-14
"Vn_D1:p" 7.486989562226220e-14
"Vn_GND:n" -2.548643843515844e-10
"Vn_GND:p" 2.548643843515844e-10
"Vn_SD:n" 5.109476834452800e-13
"Vn_SD:p" -5.109476834452800e-13
"Vn_VDD:n" 2.544780290247757e-10
"Vn_VDD:p" -2.544780290247757e-10
"Vn_Z:n" 5.209034646454739e-15
"Vn_Z:p" -5.209034646454739e-15
"time" 1.170000000000000e-10
"Vn_D1:v" 0.000000000000000e+00
"Vn_D1:i" 7.504693195391075e-14
"Vn_D1:pwr" 0.000000000000000e+00
"Vn_GND:v" 0.000000000000000e+00
"Vn_GND:i" 2.548656871577981e-10
"Vn_GND:pwr" 0.000000000000000e+00
"Vn_SD:v" 0.000000000000000e+00
"Vn_SD:i" -5.107129544657071e-13
"Vn_SD:pwr" -0.000000000000000e+00
"Vn_VDD:v" 1.200000000000000e+00
"Vn_VDD:i" -2.544831908323695e-10
"Vn_VDD:pwr" -3.053798289988435e-10
"Vn_Z:v" 0.000000000000000e+00
"Vn_Z:i" -1.761802847752414e-15
"Vn_Z:pwr" -0.000000000000000e+00
"n_Z" 1.199999494866628e+00
"n_D1" 0.000000000000000e+00
"n_SD" 1.200000000000000e+00
"Vn_D1:n" -7.504693195391075e-14
"Vn_D1:p" 7.504693195391075e-14
"Vn_GND:n" -2.548656871577981e-10
"Vn_GND:p" 2.548656871577981e-10
"Vn_SD:n" 5.107129544657071e-13
"Vn_SD:p" -5.107129544657071e-13
"Vn_VDD:n" 2.544831908323695e-10
"Vn_VDD:p" -2.544831908323695e-10
"Vn_Z:n" 1.761802847752414e-15
"Vn_Z:p" -1.761802847752414e-15
"time" 2.730000000000000e-10
"Vn_D1:v" 0.000000000000000e+00
"Vn_D1:i" 7.520913580341679e-14
"Vn_D1:pwr" 0.000000000000000e+00
"Vn_GND:v" 0.000000000000000e+00
"Vn_GND:i" 2.548665131322238e-10
"Vn_GND:pwr" 0.000000000000000e+00
"Vn_SD:v" 0.000000000000000e+00
"Vn_SD:i" -5.105266264382393e-13
"Vn_SD:pwr" -0.000000000000000e+00
"Vn_VDD:v" 1.200000000000000e+00
"Vn_VDD:i" -2.544866843588853e-10
"Vn_VDD:pwr" -3.053840212306624e-10
"Vn_Z:v" 0.000000000000000e+00
"Vn_Z:i" 5.605093080543766e-16
"Vn_Z:pwr" 0.000000000000000e+00
"n_Z" 1.199999494849896e+00
"n_D1" 0.000000000000000e+00
"n_SD" 1.200000000000000e+00
"Vn_D1:n" -7.520913580341679e-14
"Vn_D1:p" 7.520913580341679e-14
"Vn_GND:n" -2.548665131322238e-10
"Vn_GND:p" 2.548665131322238e-10
"Vn_SD:n" 5.105266264382393e-13
"Vn_SD:p" -5.105266264382393e-13
"Vn_VDD:n" 2.544866843588853e-10
"Vn_VDD:p" -2.544866843588853e-10
"Vn_Z:n" -5.605093080543766e-16
"Vn_Z:p" 5.605093080543766e-16
"time" 5.850000000000002e-10
"Vn_D1:v" 0.000000000000000e+00
"Vn_D1:i" 7.514976047142388e-14
"Vn_D1:pwr" 0.000000000000000e+00
"Vn_GND:v" 0.000000000000000e+00
"Vn_GND:i" 2.548661727878257e-10
"Vn_GND:pwr" 0.000000000000000e+00
"Vn_SD:v" 0.000000000000000e+00
"Vn_SD:i" -5.105952984861877e-13
"Vn_SD:pwr" -0.000000000000000e+00
"Vn_VDD:v" 1.200000000000000e+00
"Vn_VDD:i" -2.544853362118490e-10
"Vn_VDD:pwr" -3.053824034542188e-10
"Vn_Z:v" 0.000000000000000e+00
"Vn_Z:i" -3.286539323130550e-16
"Vn_Z:pwr" -0.000000000000000e+00
"n_Z" 1.199999494856355e+00
"n_D1" 0.000000000000000e+00
"n_SD" 1.200000000000000e+00
"Vn_D1:n" -7.514976047142388e-14
"Vn_D1:p" 7.514976047142388e-14
"Vn_GND:n" -2.548661727878257e-10
"Vn_GND:p" 2.548661727878257e-10
"Vn_SD:n" 5.105952984861877e-13
"Vn_SD:p" -5.105952984861877e-13
"Vn_VDD:n" 2.544853362118490e-10
"Vn_VDD:p" -2.544853362118490e-10
"Vn_Z:n" 3.286539323130550e-16
"Vn_Z:p" -3.286539323130550e-16
"time" 1.209000000000000e-09
"Vn_D1:v" 0.000000000000000e+00
"Vn_D1:i" 7.518756027137801e-14
"Vn_D1:pwr" 0.000000000000000e+00
"Vn_GND:v" 0.000000000000000e+00
"Vn_GND:i" 2.548663501296255e-10
"Vn_GND:pwr" 0.000000000000000e+00
"Vn_SD:v" 0.000000000000000e+00
"Vn_SD:i" -5.105512834690814e-13
"Vn_SD:pwr" -0.000000000000000e+00
"Vn_VDD:v" 1.200000000000000e+00
"Vn_VDD:i" -2.544861671423994e-10
"Vn_VDD:pwr" -3.053834005708793e-10
"Vn_Z:v" 0.000000000000000e+00
"Vn_Z:i" 2.563881910613261e-16
"Vn_Z:pwr" 0.000000000000000e+00
"n_Z" 1.199999494852328e+00
"n_D1" 0.000000000000000e+00
"n_SD" 1.200000000000000e+00
"Vn_D1:n" -7.518756027137801e-14
"Vn_D1:p" 7.518756027137801e-14
"Vn_GND:n" -2.548663501296255e-10
"Vn_GND:p" 2.548663501296255e-10
"Vn_SD:n" 5.105512834690814e-13
"Vn_SD:p" -5.105512834690814e-13
"Vn_VDD:n" 2.544861671423994e-10
"Vn_VDD:p" -2.544861671423994e-10
"Vn_Z:n" -2.563881910613261e-16
"Vn_Z:p" 2.563881910613261e-16
"time" 1.989000000000000e-09
"Vn_D1:v" 0.000000000000000e+00
"Vn_D1:i" 7.515839932165238e-14
"Vn_D1:pwr" 0.000000000000000e+00
"Vn_GND:v" 0.000000000000000e+00
"Vn_GND:i" 2.548661336953200e-10
"Vn_GND:pwr" 0.000000000000000e+00
"Vn_SD:v" 0.000000000000000e+00
"Vn_SD:i" -5.105854220182849e-13
"Vn_SD:pwr" -0.000000000000000e+00
"Vn_VDD:v" 1.200000000000000e+00
"Vn_VDD:i" -2.544854376510163e-10
"Vn_VDD:pwr" -3.053825251812195e-10
"Vn_Z:v" 0.000000000000000e+00
"Vn_Z:i" -2.060177468706240e-16
"Vn_Z:pwr" -0.000000000000000e+00
"n_Z" 1.199999494855837e+00
"n_D1" 0.000000000000000e+00
"n_SD" 1.200000000000000e+00
"Vn_D1:n" -7.515839932165238e-14
"Vn_D1:p" 7.515839932165238e-14
"Vn_GND:n" -2.548661336953200e-10
"Vn_GND:p" 2.548661336953200e-10
"Vn_SD:n" 5.105854220182849e-13
"Vn_SD:p" -5.105854220182849e-13
"Vn_VDD:n" 2.544854376510163e-10
"Vn_VDD:p" -2.544854376510163e-10
"Vn_Z:n" 2.060177468706240e-16
"Vn_Z:p" -2.060177468706240e-16
"time" 2.769000000000001e-09
"Vn_D1:v" 0.000000000000000e+00
"Vn_D1:i" 7.518145726030650e-14
"Vn_D1:pwr" 0.000000000000000e+00
"Vn_GND:v" 0.000000000000000e+00
"Vn_GND:i" 2.548662278738622e-10
"Vn_GND:pwr" 0.000000000000000e+00
"Vn_SD:v" 0.000000000000000e+00
"Vn_SD:i" -5.105582787580444e-13
"Vn_SD:pwr" -0.000000000000000e+00
"Vn_VDD:v" 1.200000000000000e+00
"Vn_VDD:i" -2.544859459310672e-10
"Vn_VDD:pwr" -3.053831351172807e-10
"Vn_Z:v" 0.000000000000000e+00
"Vn_Z:i" 1.701950636760748e-16
"Vn_Z:pwr" 0.000000000000000e+00
"n_Z" 1.199999494853342e+00
"n_D1" 0.000000000000000e+00
"n_SD" 1.200000000000000e+00
"Vn_D1:n" -7.518145726030650e-14
"Vn_D1:p" 7.518145726030650e-14
"Vn_GND:n" -2.548662278738622e-10
"Vn_GND:p" 2.548662278738622e-10
"Vn_SD:n" 5.105582787580444e-13
"Vn_SD:p" -5.105582787580444e-13
"Vn_VDD:n" 2.544859459310672e-10
"Vn_VDD:p" -2.544859459310672e-10
"Vn_Z:n" -1.701950636760748e-16
"Vn_Z:p" 1.701950636760748e-16
"time" 3.000000000000000e-09
"Vn_D1:v" 0.000000000000000e+00
"Vn_D1:i" 7.516727983605908e-14
"Vn_D1:pwr" 0.000000000000000e+00
"Vn_GND:v" 0.000000000000000e+00
"Vn_GND:i" 2.548661200027311e-10
"Vn_GND:pwr" 0.000000000000000e+00
"Vn_SD:v" 0.000000000000000e+00
"Vn_SD:i" -5.105752058189147e-13
"Vn_SD:pwr" -0.000000000000000e+00
"Vn_VDD:v" 1.200000000000000e+00
"Vn_VDD:i" -2.544855652349787e-10
"Vn_VDD:pwr" -3.053826782819744e-10
"Vn_Z:v" 0.000000000000000e+00
"Vn_Z:i" -8.074221252758134e-17
"Vn_Z:pwr" -0.000000000000000e+00
"n_Z" 1.199999494855186e+00
"n_D1" 0.000000000000000e+00
"n_SD" 1.200000000000000e+00
"Vn_D1:n" -7.516727983605908e-14
"Vn_D1:p" 7.516727983605908e-14
"Vn_GND:n" -2.548661200027311e-10
"Vn_GND:p" 2.548661200027311e-10
"Vn_SD:n" 5.105752058189147e-13
"Vn_SD:p" -5.105752058189147e-13
"Vn_VDD:n" 2.544855652349787e-10
"Vn_VDD:p" -2.544855652349787e-10
"Vn_Z:n" 8.074221252758134e-17
"Vn_Z:p" -8.074221252758134e-17
"time" 3.010000000000000e-09
"Vn_D1:v" 0.000000000000000e+00
"Vn_D1:i" 7.516737376880057e-14
"Vn_D1:pwr" 0.000000000000000e+00
"Vn_GND:v" 0.000000000000000e+00
"Vn_GND:i" 2.548661274339526e-10
"Vn_GND:pwr" 0.000000000000000e+00
"Vn_SD:v" 0.000000000000000e+00
"Vn_SD:i" -5.105750774275709e-13
"Vn_SD:pwr" -0.000000000000000e+00
"Vn_VDD:v" 1.200000000000000e+00
"Vn_VDD:i" -2.544855876005852e-10
"Vn_VDD:pwr" -3.053827051207022e-10
"Vn_Z:v" 0.000000000000000e+00
"Vn_Z:i" -6.361776758642767e-17
"Vn_Z:pwr" -0.000000000000000e+00
"n_Z" 1.199999494855073e+00
"n_D1" 0.000000000000000e+00
"n_SD" 1.200000000000000e+00
"Vn_D1:n" -7.516737376880057e-14
"Vn_D1:p" 7.516737376880057e-14
"Vn_GND:n" -2.548661274339526e-10
"Vn_GND:p" 2.548661274339526e-10
"Vn_SD:n" 5.105750774275709e-13
"Vn_SD:p" -5.105750774275709e-13
"Vn_VDD:n" 2.544855876005852e-10
"Vn_VDD:p" -2.544855876005852e-10
"Vn_Z:n" 6.361776758642767e-17
"Vn_Z:p" -6.361776758642767e-17
"time" 3.030000000000000e-09
"Vn_D1:v" 0.000000000000000e+00
"Vn_D1:i" 7.516828773138099e-14
"Vn_D1:pwr" 0.000000000000000e+00
"Vn_GND:v" 0.000000000000000e+00
"Vn_GND:i" 2.548661342186465e-10
"Vn_GND:pwr" 0.000000000000000e+00
"Vn_SD:v" 0.000000000000000e+00
"Vn_SD:i" -5.105737540760849e-13
"Vn_SD:pwr" -0.000000000000000e+00
"Vn_VDD:v" 1.200000000000000e+00
"Vn_VDD:i" -2.544856184217131e-10
"Vn_VDD:pwr" -3.053827421060557e-10
"Vn_Z:v" 0.000000000000000e+00
"Vn_Z:i" -4.178225327365910e-17
"Vn_Z:pwr" -0.000000000000000e+00
"n_Z" 1.199999494854924e+00
"n_D1" 0.000000000000000e+00
"n_SD" 1.200000000000000e+00
"Vn_D1:n" -7.516828773138099e-14
"Vn_D1:p" 7.516828773138099e-14
"Vn_GND:n" -2.548661342186465e-10
"Vn_GND:p" 2.548661342186465e-10
"Vn_SD:n" 5.105737540760849e-13
"Vn_SD:p" -5.105737540760849e-13
"Vn_VDD:n" 2.544856184217131e-10
"Vn_VDD:p" -2.544856184217131e-10
"Vn_Z:n" 4.178225327365910e-17
"Vn_Z:p" -4.178225327365910e-17
"time" 3.070000000000001e-09
"Vn_D1:v" 0.000000000000000e+00
"Vn_D1:i" 7.517020637888863e-14
"Vn_D1:pwr" 0.000000000000000e+00
"Vn_GND:v" 0.000000000000000e+00
"Vn_GND:i" 2.548661422384317e-10
"Vn_GND:pwr" 0.000000000000000e+00
"Vn_SD:v" 0.000000000000000e+00
"Vn_SD:i" -5.105714922687835e-13
"Vn_SD:pwr" -0.000000000000000e+00
"Vn_VDD:v" 1.200000000000000e+00
"Vn_VDD:i" -2.544856580457100e-10
"Vn_VDD:pwr" -3.053827896548520e-10
"Vn_Z:v" 0.000000000000000e+00
"Vn_Z:i" -1.252582969202271e-17
"Vn_Z:pwr" -0.000000000000000e+00
"n_Z" 1.199999494854730e+00
"n_D1" 0.000000000000000e+00
"n_SD" 1.200000000000000e+00
"Vn_D1:n" -7.517020637888863e-14
"Vn_D1:p" 7.517020637888863e-14
"Vn_GND:n" -2.548661422384317e-10
"Vn_GND:p" 2.548661422384317e-10
"Vn_SD:n" 5.105714922687835e-13
"Vn_SD:p" -5.105714922687835e-13
"Vn_VDD:n" 2.544856580457100e-10
"Vn_VDD:p" -2.544856580457100e-10
"Vn_Z:n" 1.252582969202271e-17
"Vn_Z:p" -1.252582969202271e-17
"time" 3.150000000000003e-09
"Vn_D1:v" 0.000000000000000e+00
"Vn_D1:i" 7.517144728377941e-14
"Vn_D1:pwr" 0.000000000000000e+00
"Vn_GND:v" 0.000000000000000e+00
"Vn_GND:i" 2.548661431974732e-10
"Vn_GND:pwr" 0.000000000000000e+00
"Vn_SD:v" 0.000000000000000e+00
"Vn_SD:i" -5.105701548701660e-13
"Vn_SD:pwr" -0.000000000000000e+00
"Vn_VDD:v" 1.200000000000000e+00
"Vn_VDD:i" -2.544856745714148e-10
"Vn_VDD:pwr" -3.053828094856977e-10
"Vn_Z:v" 0.000000000000000e+00
"Vn_Z:i" 1.191632164118822e-18
"Vn_Z:pwr" 0.000000000000000e+00
"n_Z" 1.199999494854649e+00
"n_D1" 0.000000000000000e+00
"n_SD" 1.200000000000000e+00
"Vn_D1:n" -7.517144728377941e-14
"Vn_D1:p" 7.517144728377941e-14
"Vn_GND:n" -2.548661431974732e-10
"Vn_GND:p" 2.548661431974732e-10
"Vn_SD:n" 5.105701548701660e-13
"Vn_SD:p" -5.105701548701660e-13
"Vn_VDD:n" 2.544856745714148e-10
"Vn_VDD:p" -2.544856745714148e-10
"Vn_Z:n" -1.191632164118822e-18
"Vn_Z:p" 1.191632164118822e-18
"time" 3.310000000000005e-09
"Vn_D1:v" 0.000000000000000e+00
"Vn_D1:i" 7.517099566046336e-14
"Vn_D1:pwr" 0.000000000000000e+00
"Vn_GND:v" 0.000000000000000e+00
"Vn_GND:i" 2.548661319523871e-10
"Vn_GND:pwr" 0.000000000000000e+00
"Vn_SD:v" 0.000000000000000e+00
"Vn_SD:i" -5.105705838557221e-13
"Vn_SD:pwr" -0.000000000000000e+00
"Vn_VDD:v" 1.200000000000000e+00
"Vn_VDD:i" -2.544856686182786e-10
"Vn_VDD:pwr" -3.053828023419343e-10
"Vn_Z:v" 0.000000000000000e+00
"Vn_Z:i" 8.508825540834338e-19
"Vn_Z:pwr" 0.000000000000000e+00
"n_Z" 1.199999494854678e+00
"n_D1" 0.000000000000000e+00
"n_SD" 1.200000000000000e+00
"Vn_D1:n" -7.517099566046336e-14
"Vn_D1:p" 7.517099566046336e-14
"Vn_GND:n" -2.548661319523871e-10
"Vn_GND:p" 2.548661319523871e-10
"Vn_SD:n" 5.105705838557221e-13
"Vn_SD:p" -5.105705838557221e-13
"Vn_VDD:n" 2.544856686182786e-10
"Vn_VDD:p" -2.544856686182786e-10
"Vn_Z:n" -8.508825540834338e-19
"Vn_Z:p" 8.508825540834338e-19
"time" 3.630000000000011e-09
"Vn_D1:v" 0.000000000000000e+00
"Vn_D1:i" 7.517160555794595e-14
"Vn_D1:pwr" 0.000000000000000e+00
"Vn_GND:v" 0.000000000000000e+00
"Vn_GND:i" 2.548661161120347e-10
"Vn_GND:pwr" 0.000000000000000e+00
"Vn_SD:v" 0.000000000000000e+00
"Vn_SD:i" -5.105699570390912e-13
"Vn_SD:pwr" -0.000000000000000e+00
"Vn_VDD:v" 1.200000000000000e+00
"Vn_VDD:i" -2.544856489472138e-10
"Vn_VDD:pwr" -3.053827787366565e-10
"Vn_Z:v" 0.000000000000000e+00
"Vn_Z:i" 2.392484107489005e-18
"Vn_Z:pwr" 0.000000000000000e+00
"n_Z" 1.199999494854771e+00
"n_D1" 0.000000000000000e+00
"n_SD" 1.200000000000000e+00
"Vn_D1:n" -7.517160555794595e-14
"Vn_D1:p" 7.517160555794595e-14
"Vn_GND:n" -2.548661161120347e-10
"Vn_GND:p" 2.548661161120347e-10
"Vn_SD:n" 5.105699570390912e-13
"Vn_SD:p" -5.105699570390912e-13
"Vn_VDD:n" 2.544856489472138e-10
"Vn_VDD:p" -2.544856489472138e-10
"Vn_Z:n" -2.392484107489005e-18
"Vn_Z:p" 2.392484107489005e-18
"time" 4.270000000000022e-09
"Vn_D1:v" 0.000000000000000e+00
"Vn_D1:i" 7.517097570466421e-14
"Vn_D1:pwr" 0.000000000000000e+00
"Vn_GND:v" 0.000000000000000e+00
"Vn_GND:i" 2.548660758953848e-10
"Vn_GND:pwr" 0.000000000000000e+00
"Vn_SD:v" 0.000000000000000e+00
"Vn_SD:i" -5.105706237520262e-13
"Vn_SD:pwr" -0.000000000000000e+00
"Vn_VDD:v" 1.200000000000000e+00
"Vn_VDD:i" -2.544856096637800e-10
"Vn_VDD:pwr" -3.053827315965360e-10
"Vn_Z:v" 0.000000000000000e+00
"Vn_Z:i" 2.157218679179491e-19
"Vn_Z:pwr" 0.000000000000000e+00
"n_Z" 1.199999494854920e+00
"n_D1" 0.000000000000000e+00
"n_SD" 1.200000000000000e+00
"Vn_D1:n" -7.517097570466421e-14
"Vn_D1:p" 7.517097570466421e-14
"Vn_GND:n" -2.548660758953848e-10
"Vn_GND:p" 2.548660758953848e-10
"Vn_SD:n" 5.105706237520262e-13
"Vn_SD:p" -5.105706237520262e-13
"Vn_VDD:n" 2.544856096637800e-10
"Vn_VDD:p" -2.544856096637800e-10
"Vn_Z:n" -2.157218679179491e-19
"Vn_Z:p" 2.157218679179491e-19
"time" 5.050000000000022e-09
"Vn_D1:v" 0.000000000000000e+00
"Vn_D1:i" 7.517158748259474e-14
"Vn_D1:pwr" 0.000000000000000e+00
"Vn_GND:v" 0.000000000000000e+00
"Vn_GND:i" 2.548660335530553e-10
"Vn_GND:pwr" 0.000000000000000e+00
"Vn_SD:v" 0.000000000000000e+00
"Vn_SD:i" -5.105699611851822e-13
"Vn_SD:pwr" -0.000000000000000e+00
"Vn_VDD:v" 1.200000000000000e+00
"Vn_VDD:i" -2.544855714865166e-10
"Vn_VDD:pwr" -3.053826857838200e-10
"Vn_Z:v" 0.000000000000000e+00
"Vn_Z:i" 2.443662494231334e-18
"Vn_Z:pwr" 0.000000000000000e+00
"n_Z" 1.199999494855106e+00
"n_D1" 0.000000000000000e+00
"n_SD" 1.200000000000000e+00
"Vn_D1:n" -7.517158748259474e-14
"Vn_D1:p" 7.517158748259474e-14
"Vn_GND:n" -2.548660335530553e-10
"Vn_GND:p" 2.548660335530553e-10
"Vn_SD:n" 5.105699611851822e-13
"Vn_SD:p" -5.105699611851822e-13
"Vn_VDD:n" 2.544855714865166e-10
"Vn_VDD:p" -2.544855714865166e-10
"Vn_Z:n" -2.443662494231334e-18
"Vn_Z:p" 2.443662494231334e-18
"time" 5.830000000000022e-09
"Vn_D1:v" 0.000000000000000e+00
"Vn_D1:i" 7.517102630872044e-14
"Vn_D1:pwr" 0.000000000000000e+00
"Vn_GND:v" 0.000000000000000e+00
"Vn_GND:i" 2.548659856327220e-10
"Vn_GND:pwr" 0.000000000000000e+00
"Vn_SD:v" 0.000000000000000e+00
"Vn_SD:i" -5.105705911128268e-13
"Vn_SD:pwr" -0.000000000000000e+00
"Vn_VDD:v" 1.200000000000000e+00
"Vn_VDD:i" -2.544855186896747e-10
"Vn_VDD:pwr" -3.053826224276096e-10
"Vn_Z:v" 0.000000000000000e+00
"Vn_Z:i" 5.862097034773952e-19
"Vn_Z:pwr" 0.000000000000000e+00
"n_Z" 1.199999494855316e+00
"n_D1" 0.000000000000000e+00
"n_SD" 1.200000000000000e+00
"Vn_D1:n" -7.517102630872044e-14
"Vn_D1:p" 7.517102630872044e-14
"Vn_GND:n" -2.548659856327220e-10
"Vn_GND:p" 2.548659856327220e-10
"Vn_SD:n" 5.105705911128268e-13
"Vn_SD:p" -5.105705911128268e-13
"Vn_VDD:n" 2.544855186896747e-10
"Vn_VDD:p" -2.544855186896747e-10
"Vn_Z:n" -5.862097034773952e-19
"Vn_Z:p" 5.862097034773952e-19
"time" 6.010000000000000e-09
"Vn_D1:v" 0.000000000000000e+00
"Vn_D1:i" 7.517142780686621e-14
"Vn_D1:pwr" 0.000000000000000e+00
"Vn_GND:v" 0.000000000000000e+00
"Vn_GND:i" 2.548659775387413e-10
"Vn_GND:pwr" 0.000000000000000e+00
"Vn_SD:v" 0.000000000000000e+00
"Vn_SD:i" -5.105700425110838e-13
"Vn_SD:pwr" -0.000000000000000e+00
"Vn_VDD:v" 1.200000000000000e+00
"Vn_VDD:i" -2.544855169694264e-10
"Vn_VDD:pwr" -3.053826203633117e-10
"Vn_Z:v" 0.000000000000000e+00
"Vn_Z:i" 1.394906615245397e-18
"Vn_Z:pwr" 0.000000000000000e+00
"n_Z" 1.199999494855348e+00
"n_D1" 0.000000000000000e+00
"n_SD" 1.200000000000000e+00
"Vn_D1:n" -7.517142780686621e-14
"Vn_D1:p" 7.517142780686621e-14
"Vn_GND:n" -2.548659775387413e-10
"Vn_GND:p" 2.548659775387413e-10
"Vn_SD:n" 5.105700425110838e-13
"Vn_SD:p" -5.105700425110838e-13
"Vn_VDD:n" 2.544855169694264e-10
"Vn_VDD:p" -2.544855169694264e-10
"Vn_Z:n" -1.394906615245397e-18
"Vn_Z:p" 1.394906615245397e-18
"time" 6.019999795400000e-09
"Vn_D1:v" 0.000000000000000e+00
"Vn_D1:i" 7.517163843151452e-14
"Vn_D1:pwr" 0.000000000000000e+00
"Vn_GND:v" 0.000000000000000e+00
"Vn_GND:i" 2.548659764292141e-10
"Vn_GND:pwr" 0.000000000000000e+00
"Vn_SD:v" 0.000000000000000e+00
"Vn_SD:i" -5.105701738245875e-13
"Vn_SD:pwr" -0.000000000000000e+00
"Vn_VDD:v" 1.200000000000000e+00
"Vn_VDD:i" -2.544855117914459e-10
"Vn_VDD:pwr" -3.053826141497350e-10
"Vn_Z:v" 0.000000000000000e+00
"Vn_Z:i" 2.290237975667457e-18
"Vn_Z:pwr" 0.000000000000000e+00
"n_Z" 1.199999494855353e+00
"n_D1" 0.000000000000000e+00
"n_SD" 1.200000000000000e+00
"Vn_D1:n" -7.517163843151452e-14
"Vn_D1:p" 7.517163843151452e-14
"Vn_GND:n" -2.548659764292141e-10
"Vn_GND:p" 2.548659764292141e-10
"Vn_SD:n" 5.105701738245875e-13
"Vn_SD:p" -5.105701738245875e-13
"Vn_VDD:n" 2.544855117914459e-10
"Vn_VDD:p" -2.544855117914459e-10
"Vn_Z:n" -2.290237975667457e-18
"Vn_Z:p" 2.290237975667457e-18
"time" 6.020000000000000e-09
"Vn_D1:v" 0.000000000000000e+00
"Vn_D1:i" -1.348174194059859e-06
"Vn_D1:pwr" -0.000000000000000e+00
"Vn_GND:v" 0.000000000000000e+00
"Vn_GND:i" 2.421593919761470e-07
"Vn_GND:pwr" 0.000000000000000e+00
"Vn_SD:v" 0.000000000000000e+00
"Vn_SD:i" 5.440672788071094e-11
"Vn_SD:pwr" 0.000000000000000e+00
"Vn_VDD:v" 1.200000000000000e+00
"Vn_VDD:i" 1.105960113634393e-06
"Vn_VDD:pwr" 1.327152136361271e-06
"Vn_Z:v" 0.000000000000000e+00
"Vn_Z:i" 2.245625429479344e-13
"Vn_Z:pwr" 0.000000000000000e+00
"n_Z" 1.199999494855361e+00
"n_D1" 2.456580613633633e-07
"n_SD" 1.200000000000000e+00
"Vn_D1:n" 1.348174194059859e-06
"Vn_D1:p" -1.348174194059859e-06
"Vn_GND:n" -2.421593919761470e-07
"Vn_GND:p" 2.421593919761470e-07
"Vn_SD:n" -5.440672788071094e-11
"Vn_SD:p" 5.440672788071094e-11
"Vn_VDD:n" -1.105960113634393e-06
"Vn_VDD:p" 1.105960113634393e-06
"Vn_Z:n" -2.245625429479344e-13
"Vn_Z:p" 2.245625429479344e-13
"time" 6.020000409200001e-09
"Vn_D1:v" 0.000000000000000e+00
"Vn_D1:i" -1.349430108739133e-06
"Vn_D1:pwr" -0.000000000000000e+00
"Vn_GND:v" 0.000000000000000e+00
"Vn_GND:i" 2.423764583361116e-07
"Vn_GND:pwr" 0.000000000000000e+00
"Vn_SD:v" 0.000000000000000e+00
"Vn_SD:i" 1.639628270345709e-10
"Vn_SD:pwr" 0.000000000000000e+00
"Vn_VDD:v" 1.200000000000000e+00
"Vn_VDD:i" 1.106888068974567e-06
"Vn_VDD:pwr" 1.328265682769480e-06
"Vn_Z:v" 0.000000000000000e+00
"Vn_Z:i" 1.561122685117917e-12
"Vn_Z:pwr" 0.000000000000000e+00
"n_Z" 1.199999494855475e+00
"n_D1" 7.369741840900898e-07
"n_SD" 1.200000000000000e+00
"Vn_D1:n" 1.349430108739133e-06
"Vn_D1:p" -1.349430108739133e-06
"Vn_GND:n" -2.423764583361116e-07
"Vn_GND:p" 2.423764583361116e-07
"Vn_SD:n" -1.639628270345709e-10
"Vn_SD:p" 1.639628270345709e-10
"Vn_VDD:n" -1.106888068974567e-06
"Vn_VDD:p" 1.106888068974567e-06
"Vn_Z:n" -1.561122685117917e-12
"Vn_Z:p" 1.561122685117917e-12
"time" 6.020001227600002e-09
"Vn_D1:v" 0.000000000000000e+00
"Vn_D1:i" -1.351934667415085e-06
"Vn_D1:pwr" -0.000000000000000e+00
"Vn_GND:v" 0.000000000000000e+00
"Vn_GND:i" 2.428094152177882e-07
"Vn_GND:pwr" 0.000000000000000e+00
"Vn_SD:v" 0.000000000000000e+00
"Vn_SD:i" 3.825248452416131e-10
"Vn_SD:pwr" 0.000000000000000e+00
"Vn_VDD:v" 1.200000000000000e+00
"Vn_VDD:i" 1.108736686017710e-06
"Vn_VDD:pwr" 1.330484023221252e-06
"Vn_Z:v" 0.000000000000000e+00
"Vn_Z:i" 5.987747025880595e-12
"Vn_Z:pwr" 0.000000000000000e+00
"n_Z" 1.199999494856026e+00
"n_D1" 1.719606429543543e-06
"n_SD" 1.200000000000000e+00
"Vn_D1:n" 1.351934667415085e-06
"Vn_D1:p" -1.351934667415085e-06
"Vn_GND:n" -2.428094152177882e-07
"Vn_GND:p" 2.428094152177882e-07
"Vn_SD:n" -3.825248452416131e-10
"Vn_SD:p" 3.825248452416131e-10
"Vn_VDD:n" -1.108736686017710e-06
"Vn_VDD:p" 1.108736686017710e-06
"Vn_Z:n" -5.987747025880595e-12
"Vn_Z:p" 5.987747025880595e-12
"time" 6.020002864400004e-09
"Vn_D1:v" 0.000000000000000e+00
"Vn_D1:i" -1.356900226690521e-06
"Vn_D1:pwr" -0.000000000000000e+00
"Vn_GND:v" 0.000000000000000e+00
"Vn_GND:i" 2.436683792798576e-07
"Vn_GND:pwr" 0.000000000000000e+00
"Vn_SD:v" 0.000000000000000e+00
"Vn_SD:i" 8.163218946135940e-10
"Vn_SD:pwr" 0.000000000000000e+00
"Vn_VDD:v" 1.200000000000000e+00
"Vn_VDD:i" 1.112390357861091e-06
"Vn_VDD:pwr" 1.334868429433310e-06
"Vn_Z:v" 0.000000000000000e+00
"Vn_Z:i" 2.511125288987417e-11
"Vn_Z:pwr" 0.000000000000000e+00
"n_Z" 1.199999494860571e+00
"n_D1" 3.684870920450449e-06
"n_SD" 1.200000000000000e+00
"Vn_D1:n" 1.356900226690521e-06
"Vn_D1:p" -1.356900226690521e-06
"Vn_GND:n" -2.436683792798576e-07
"Vn_GND:p" 2.436683792798576e-07
"Vn_SD:n" -8.163218946135940e-10
"Vn_SD:p" 8.163218946135940e-10
"Vn_VDD:n" -1.112390357861091e-06
"Vn_VDD:p" 1.112390357861091e-06
"Vn_Z:n" -2.511125288987417e-11
"Vn_Z:p" 2.511125288987417e-11
"time" 6.020006138000008e-09
"Vn_D1:v" 0.000000000000000e+00
"Vn_D1:i" -1.366660575528826e-06
"Vn_D1:pwr" -0.000000000000000e+00
"Vn_GND:v" 0.000000000000000e+00
"Vn_GND:i" 2.453586628739098e-07
"Vn_GND:pwr" 0.000000000000000e+00
"Vn_SD:v" 0.000000000000000e+00
"Vn_SD:i" 1.670784275702610e-09
"Vn_SD:pwr" 0.000000000000000e+00
"Vn_VDD:v" 1.200000000000000e+00
"Vn_VDD:i" 1.119529040700093e-06
"Vn_VDD:pwr" 1.343434848840112e-06
"Vn_Z:v" 0.000000000000000e+00
"Vn_Z:i" 1.020336680965509e-10
"Vn_Z:pwr" 0.000000000000000e+00
"n_Z" 1.199999494897734e+00
"n_D1" 7.615399902264261e-06
"n_SD" 1.200000000000000e+00
"Vn_D1:n" 1.366660575528826e-06
"Vn_D1:p" -1.366660575528826e-06
"Vn_GND:n" -2.453586628739098e-07
"Vn_GND:p" 2.453586628739098e-07
"Vn_SD:n" -1.670784275702610e-09
"Vn_SD:p" 1.670784275702610e-09
"Vn_VDD:n" -1.119529040700093e-06
"Vn_VDD:p" 1.119529040700093e-06
"Vn_Z:n" -1.020336680965509e-10
"Vn_Z:p" 1.020336680965509e-10
"time" 6.020012685200016e-09
"Vn_D1:v" 0.000000000000000e+00
"Vn_D1:i" -1.385521109555175e-06
"Vn_D1:pwr" -0.000000000000000e+00
"Vn_GND:v" 0.000000000000000e+00
"Vn_GND:i" 2.486310902006497e-07
"Vn_GND:pwr" 0.000000000000000e+00
"Vn_SD:v" 0.000000000000000e+00
"Vn_SD:i" 3.328111135507395e-09
"Vn_SD:pwr" 0.000000000000000e+00
"Vn_VDD:v" 1.200000000000000e+00
"Vn_VDD:i" 1.133168803610763e-06
"Vn_VDD:pwr" 1.359802564332915e-06
"Vn_Z:v" 0.000000000000000e+00
"Vn_Z:i" 3.930488637007660e-10
"Vn_Z:pwr" 0.000000000000000e+00
"n_Z" 1.199999495187145e+00
"n_D1" 1.547645786589189e-05
"n_SD" 1.200000000000000e+00
"Vn_D1:n" 1.385521109555175e-06
"Vn_D1:p" -1.385521109555175e-06
"Vn_GND:n" -2.486310902006497e-07
"Vn_GND:p" 2.486310902006497e-07
"Vn_SD:n" -3.328111135507395e-09
"Vn_SD:p" 3.328111135507395e-09
"Vn_VDD:n" -1.133168803610763e-06
"Vn_VDD:p" 1.133168803610763e-06
"Vn_Z:n" -3.930488637007660e-10
"Vn_Z:p" 3.930488637007660e-10
"time" 6.020025779600032e-09
"Vn_D1:v" 0.000000000000000e+00
"Vn_D1:i" -1.413780304721613e-06
"Vn_D1:pwr" -0.000000000000000e+00
"Vn_GND:v" 0.000000000000000e+00
"Vn_GND:i" 2.547747623551652e-07
"Vn_GND:pwr" 0.000000000000000e+00
"Vn_SD:v" 0.000000000000000e+00
"Vn_SD:i" 6.445723803201736e-09
"Vn_SD:pwr" 0.000000000000000e+00
"Vn_VDD:v" 1.200000000000000e+00
"Vn_VDD:i" 1.151150713026616e-06
"Vn_VDD:pwr" 1.381380855631939e-06
"Vn_Z:v" 0.000000000000000e+00
"Vn_Z:i" 1.409051490513156e-09
"Vn_Z:pwr" 0.000000000000000e+00
"n_Z" 1.199999497294058e+00
"n_D1" 3.119857379314713e-05
"n_SD" 1.200000000000000e+00
"Vn_D1:n" 1.413780304721613e-06
"Vn_D1:p" -1.413780304721613e-06
"Vn_GND:n" -2.547747623551652e-07
"Vn_GND:p" 2.547747623551652e-07
"Vn_SD:n" -6.445723803201736e-09
"Vn_SD:p" 6.445723803201736e-09
"Vn_VDD:n" -1.151150713026616e-06
"Vn_VDD:p" 1.151150713026616e-06
"Vn_Z:n" -1.409051490513156e-09
"Vn_Z:p" 1.409051490513156e-09
"time" 6.020051968400065e-09
"Vn_D1:v" 0.000000000000000e+00
"Vn_D1:i" -1.463281234135755e-06
"Vn_D1:pwr" -0.000000000000000e+00
"Vn_GND:v" 0.000000000000000e+00
"Vn_GND:i" 2.656296924518799e-07
"Vn_GND:pwr" 0.000000000000000e+00
"Vn_SD:v" 0.000000000000000e+00
"Vn_SD:i" 1.197119514241680e-08
"Vn_SD:pwr" 0.000000000000000e+00
"Vn_VDD:v" 1.200000000000000e+00
"Vn_VDD:i" 1.181142185049846e-06
"Vn_VDD:pwr" 1.417370622059816e-06
"Vn_Z:v" 0.000000000000000e+00
"Vn_Z:i" 4.538105731873067e-09
"Vn_Z:pwr" 0.000000000000000e+00
"n_Z" 1.199999511200211e+00
"n_D1" 6.264280564765764e-05
"n_SD" 1.200000000000000e+00
"Vn_D1:n" 1.463281234135755e-06
"Vn_D1:p" -1.463281234135755e-06
"Vn_GND:n" -2.656296924518799e-07
"Vn_GND:p" 2.656296924518799e-07
"Vn_SD:n" -1.197119514241680e-08
"Vn_SD:p" 1.197119514241680e-08
"Vn_VDD:n" -1.181142185049846e-06
"Vn_VDD:p" 1.181142185049846e-06
"Vn_Z:n" -4.538105731873067e-09
"Vn_Z:p" 4.538105731873067e-09
"time" 6.020104346000130e-09
"Vn_D1:v" 0.000000000000000e+00
"Vn_D1:i" -1.554580466938576e-06
"Vn_D1:pwr" -0.000000000000000e+00
"Vn_GND:v" 0.000000000000000e+00
"Vn_GND:i" 2.825618002392004e-07
"Vn_GND:pwr" 0.000000000000000e+00
"Vn_SD:v" 0.000000000000000e+00
"Vn_SD:i" 2.070759573940319e-08
"Vn_SD:pwr" 0.000000000000000e+00