HEADER
"PSFversion" "1.00"
"simulator" "spectre"
"version" "10.1.1.164.isr11"
"date" "3:01:57 PM, Fri Oct 17, 2014"
"design" "* Spectre Timing Acquisition"
"analysis type" "tran"
"analysis name" "transient1-018_transient1"
"analysis description" "Transient Analysis `transient1-018_transient1': time = (0 s -> 39 ns)"
"xVecSorted" "ascending"
"tolerance.relative" 0.00100000
"start" 0.00000
"outputstart" 0.00000
"stop" 3.90000e-08
"step" 3.90000e-11
"maxstep" 7.80000e-10
"ic" "all"
"useprevic" "no"
"skipdc" "no"
"reltol" 0.00100000
"abstol(V)" 1.00000e-06
"abstol(I)" 1.00000e-12
"temp" 25.0000
"tnom" 27.0000
"tempeffects" "all"
"errpreset" "moderate"
"method" "traponly"
"lteratio" 3.50000
"relref" "sigglobal"
"cmin" 0.00000
"gmin" 1.00000e-12
TYPE
"sweep" FLOAT DOUBLE PROP(
"key" "sweep"
)
"Tau" FLOAT DOUBLE PROP(
"units" "N*m"
"key" "node"
"tolerance" 1.00000e-06
)
"Alpha" FLOAT DOUBLE PROP(
"units" "rads/s^2"
"key" "node"
"tolerance" 1.00000e-06
)
"Omega" FLOAT DOUBLE PROP(
"units" "rads/s"
"key" "node"
"tolerance" 1.00000e-06
)
"Theta" FLOAT DOUBLE PROP(
"units" "rads"
"key" "node"
"tolerance" 1.00000e-06
)
"F" FLOAT DOUBLE PROP(
"units" "N"
"key" "node"
"tolerance" 1.00000e-06
)
"Imp" FLOAT DOUBLE PROP(
"units" "m/s^3"
"key" "node"
"tolerance" 1.00000e-06
)
"Acc" FLOAT DOUBLE PROP(
"units" "m/s^2"
"key" "node"
"tolerance" 1.00000e-06
)
"Vel" FLOAT DOUBLE PROP(
"units" "m/s"
"key" "node"
"tolerance" 1.00000e-06
)
"Pos" FLOAT DOUBLE PROP(
"units" "m"
"key" "node"
"tolerance" 1.00000e-06
)
"Phi" FLOAT DOUBLE PROP(
"units" "Wb"
"key" "node"
"tolerance" 1.00000e-09
)
"Q" FLOAT DOUBLE PROP(
"units" "coul"
"key" "node"
"tolerance" 1.00000e-14
)
"V" FLOAT DOUBLE PROP(
"units" "V"
"key" "node"
"tolerance" 1.00000e-06
)
"I" FLOAT DOUBLE PROP(
"units" "A"
"key" "branch"
"tolerance" 1.00000e-12
)
"MMF" FLOAT DOUBLE PROP(
"units" "A*turn"
"key" "node"
"tolerance" 1.00000e-12
)
"Wb" FLOAT DOUBLE PROP(
"units" "Wb"
"key" "node"
"tolerance" 1.00000e-09
)
"Temp" FLOAT DOUBLE PROP(
"units" "C"
"key" "node"
"tolerance" 0.000100000
)
"Pwr" FLOAT DOUBLE PROP(
"units" "W"
"key" "node"
"tolerance" 1.00000e-09
)
"U" FLOAT DOUBLE PROP(
"units" ""
"key" "node"
"tolerance" 1.00000e-06
)
"V/Sec" FLOAT DOUBLE PROP(
"units" "V/s"
"key" "node"
"tolerance" 0.000100000
)
"I/Sec" FLOAT DOUBLE PROP(
"units" "A/s"
"key" "node"
"tolerance" 1.00000e-06
)
"1/Sec" FLOAT DOUBLE PROP(
"units" "1/s"
"key" "node"
"tolerance" 0.000100000
)
"HOD" FLOAT DOUBLE PROP(
"units" ""
"key" "node"
"tolerance" 0.0100000
)
"A" FLOAT DOUBLE PROP(
"key" "inst"
)
"W" FLOAT DOUBLE PROP(
"key" "inst"
)
SWEEP
"time" "sweep" PROP(
"sweep_direction" 0
"units" "s"
"plot" 0
"grid" 1
)
TRACE
"Vn_D1:v" "V" PROP(
"units" "V"
)
"Vn_D1:i" "A" PROP(
"units" "A"
)
"Vn_D1:pwr" "W" PROP(
"units" "W"
)
"Vn_GND:v" "V" PROP(
"units" "V"
)
"Vn_GND:i" "A" PROP(
"units" "A"
)
"Vn_GND:pwr" "W" PROP(
"units" "W"
)
"Vn_SD:v" "V" PROP(
"units" "V"
)
"Vn_SD:i" "A" PROP(
"units" "A"
)
"Vn_SD:pwr" "W" PROP(
"units" "W"
)
"Vn_VDD:v" "V" PROP(
"units" "V"
)
"Vn_VDD:i" "A" PROP(
"units" "A"
)
"Vn_VDD:pwr" "W" PROP(
"units" "W"
)
"Vn_Z:v" "V" PROP(
"units" "V"
)
"Vn_Z:i" "A" PROP(
"units" "A"
)
"Vn_Z:pwr" "W" PROP(
"units" "W"
)
"n_Z" "V"
"n_D1" "V"
"n_SD" "V"
"Vn_D1:n" "I"
"Vn_D1:p" "I"
"Vn_GND:n" "I"
"Vn_GND:p" "I"
"Vn_SD:n" "I"
"Vn_SD:p" "I"
"Vn_VDD:n" "I"
"Vn_VDD:p" "I"
"Vn_Z:n" "I"
"Vn_Z:p" "I"
VALUE
"time" 0.000000000000000e+00
"Vn_D1:v" 0.000000000000000e+00
"Vn_D1:i" 7.517119452868270e-14
"Vn_D1:pwr" 0.000000000000000e+00
"Vn_GND:v" 0.000000000000000e+00
"Vn_GND:i" 2.548493107913159e-10
"Vn_GND:pwr" 0.000000000000000e+00
"Vn_SD:v" 0.000000000000000e+00
"Vn_SD:i" -5.105704018311278e-13
"Vn_SD:pwr" -0.000000000000000e+00
"Vn_VDD:v" 1.200000000000000e+00
"Vn_VDD:i" -2.544688430803608e-10
"Vn_VDD:pwr" -3.053626116964329e-10
"Vn_Z:v" 0.000000000000000e+00
"Vn_Z:i" 0.000000000000000e+00
"Vn_Z:pwr" 0.000000000000000e+00
"n_Z" 1.199999494927445e+00
"n_D1" 0.000000000000000e+00
"n_SD" 1.200000000000000e+00
"Vn_D1:n" -7.517119452868270e-14
"Vn_D1:p" 7.517119452868270e-14
"Vn_GND:n" -2.548493107913159e-10
"Vn_GND:p" 2.548493107913159e-10
"Vn_SD:n" 5.105704018311278e-13
"Vn_SD:p" -5.105704018311278e-13
"Vn_VDD:n" 2.544688430803608e-10
"Vn_VDD:p" -2.544688430803608e-10
"Vn_Z:n" 0.000000000000000e+00
"Vn_Z:p" 0.000000000000000e+00
"time" 3.900000000000000e-11
"Vn_D1:v" 0.000000000000000e+00
"Vn_D1:i" 7.485248270728893e-14
"Vn_D1:pwr" 0.000000000000000e+00
"Vn_GND:v" 0.000000000000000e+00
"Vn_GND:i" 2.548642916852897e-10
"Vn_GND:pwr" 0.000000000000000e+00
"Vn_SD:v" 0.000000000000000e+00
"Vn_SD:i" -5.109738996686078e-13
"Vn_SD:pwr" -0.000000000000000e+00
"Vn_VDD:v" 1.200000000000000e+00
"Vn_VDD:i" -2.544787735251658e-10
"Vn_VDD:pwr" -3.053745282301990e-10
"Vn_Z:v" 0.000000000000000e+00
"Vn_Z:i" -4.328238823380720e-15
"Vn_Z:pwr" -0.000000000000000e+00
"n_Z" 1.199999494889081e+00
"n_D1" 0.000000000000000e+00
"n_SD" 1.200000000000000e+00
"Vn_D1:n" -7.485248270728893e-14
"Vn_D1:p" 7.485248270728893e-14
"Vn_GND:n" -2.548642916852897e-10
"Vn_GND:p" 2.548642916852897e-10
"Vn_SD:n" 5.109738996686078e-13
"Vn_SD:p" -5.109738996686078e-13
"Vn_VDD:n" 2.544787735251658e-10
"Vn_VDD:p" -2.544787735251658e-10
"Vn_Z:n" 4.328238823380720e-15
"Vn_Z:p" -4.328238823380720e-15
"time" 1.170000000000000e-10
"Vn_D1:v" 0.000000000000000e+00
"Vn_D1:i" 7.504830823175774e-14
"Vn_D1:pwr" 0.000000000000000e+00
"Vn_GND:v" 0.000000000000000e+00
"Vn_GND:i" 2.548656960272108e-10
"Vn_GND:pwr" 0.000000000000000e+00
"Vn_SD:v" 0.000000000000000e+00
"Vn_SD:i" -5.107094287680510e-13
"Vn_SD:pwr" -0.000000000000000e+00
"Vn_VDD:v" 1.200000000000000e+00
"Vn_VDD:i" -2.544836115601871e-10
"Vn_VDD:pwr" -3.053803338722245e-10
"Vn_Z:v" 0.000000000000000e+00
"Vn_Z:i" -1.354833923163855e-15
"Vn_Z:pwr" -0.000000000000000e+00
"n_Z" 1.199999494865063e+00
"n_D1" 0.000000000000000e+00
"n_SD" 1.200000000000000e+00
"Vn_D1:n" -7.504830823175774e-14
"Vn_D1:p" 7.504830823175774e-14
"Vn_GND:n" -2.548656960272108e-10
"Vn_GND:p" 2.548656960272108e-10
"Vn_SD:n" 5.107094287680510e-13
"Vn_SD:p" -5.107094287680510e-13
"Vn_VDD:n" 2.544836115601871e-10
"Vn_VDD:p" -2.544836115601871e-10
"Vn_Z:n" 1.354833923163855e-15
"Vn_Z:p" -1.354833923163855e-15
"time" 2.730000000000000e-10
"Vn_D1:v" 0.000000000000000e+00
"Vn_D1:i" 7.521456377878923e-14
"Vn_D1:pwr" 0.000000000000000e+00
"Vn_GND:v" 0.000000000000000e+00
"Vn_GND:i" 2.548665394556974e-10
"Vn_GND:pwr" 0.000000000000000e+00
"Vn_SD:v" 0.000000000000000e+00
"Vn_SD:i" -5.105207830611889e-13
"Vn_SD:pwr" -0.000000000000000e+00
"Vn_VDD:v" 1.200000000000000e+00
"Vn_VDD:i" -2.544866611868350e-10
"Vn_VDD:pwr" -3.053839934242020e-10
"Vn_Z:v" 0.000000000000000e+00
"Vn_Z:i" 4.963774891177806e-16
"Vn_Z:pwr" 0.000000000000000e+00
"n_Z" 1.199999494849845e+00
"n_D1" 0.000000000000000e+00
"n_SD" 1.200000000000000e+00
"Vn_D1:n" -7.521456377878923e-14
"Vn_D1:p" 7.521456377878923e-14
"Vn_GND:n" -2.548665394556974e-10
"Vn_GND:p" 2.548665394556974e-10
"Vn_SD:n" 5.105207830611889e-13
"Vn_SD:p" -5.105207830611889e-13
"Vn_VDD:n" 2.544866611868350e-10
"Vn_VDD:p" -2.544866611868350e-10
"Vn_Z:n" -4.963774891177806e-16
"Vn_Z:p" 4.963774891177806e-16
"time" 5.850000000000002e-10
"Vn_D1:v" 0.000000000000000e+00
"Vn_D1:i" 7.514528898191747e-14
"Vn_D1:pwr" 0.000000000000000e+00
"Vn_GND:v" 0.000000000000000e+00
"Vn_GND:i" 2.548661510968570e-10
"Vn_GND:pwr" 0.000000000000000e+00
"Vn_SD:v" 0.000000000000000e+00
"Vn_SD:i" -5.106003895125163e-13
"Vn_SD:pwr" -0.000000000000000e+00
"Vn_VDD:v" 1.200000000000000e+00
"Vn_VDD:i" -2.544853232745637e-10
"Vn_VDD:pwr" -3.053823879294764e-10
"Vn_Z:v" 0.000000000000000e+00
"Vn_Z:i" -3.082272439077136e-16
"Vn_Z:pwr" -0.000000000000000e+00
"n_Z" 1.199999494856516e+00
"n_D1" 0.000000000000000e+00
"n_SD" 1.200000000000000e+00
"Vn_D1:n" -7.514528898191747e-14
"Vn_D1:p" 7.514528898191747e-14
"Vn_GND:n" -2.548661510968570e-10
"Vn_GND:p" 2.548661510968570e-10
"Vn_SD:n" 5.106003895125163e-13
"Vn_SD:p" -5.106003895125163e-13
"Vn_VDD:n" 2.544853232745637e-10
"Vn_VDD:p" -2.544853232745637e-10
"Vn_Z:n" 3.082272439077136e-16
"Vn_Z:p" -3.082272439077136e-16
"time" 1.209000000000000e-09
"Vn_D1:v" 0.000000000000000e+00
"Vn_D1:i" 7.519132322965989e-14
"Vn_D1:pwr" 0.000000000000000e+00
"Vn_GND:v" 0.000000000000000e+00
"Vn_GND:i" 2.548663681957419e-10
"Vn_GND:pwr" 0.000000000000000e+00
"Vn_SD:v" 0.000000000000000e+00
"Vn_SD:i" -5.105468854470540e-13
"Vn_SD:pwr" -0.000000000000000e+00
"Vn_VDD:v" 1.200000000000000e+00
"Vn_VDD:i" -2.544861902551609e-10
"Vn_VDD:pwr" -3.053834283061931e-10
"Vn_Z:v" 0.000000000000000e+00
"Vn_Z:i" 2.466080052037595e-16
"Vn_Z:pwr" 0.000000000000000e+00
"n_Z" 1.199999494852147e+00
"n_D1" 0.000000000000000e+00
"n_SD" 1.200000000000000e+00
"Vn_D1:n" -7.519132322965989e-14
"Vn_D1:p" 7.519132322965989e-14
"Vn_GND:n" -2.548663681957419e-10
"Vn_GND:p" 2.548663681957419e-10
"Vn_SD:n" 5.105468854470540e-13
"Vn_SD:p" -5.105468854470540e-13
"Vn_VDD:n" 2.544861902551609e-10
"Vn_VDD:p" -2.544861902551609e-10
"Vn_Z:n" -2.466080052037595e-16
"Vn_Z:p" 2.466080052037595e-16
"time" 1.989000000000000e-09
"Vn_D1:v" 0.000000000000000e+00
"Vn_D1:i" 7.515497622779864e-14
"Vn_D1:pwr" 0.000000000000000e+00
"Vn_GND:v" 0.000000000000000e+00
"Vn_GND:i" 2.548661170675591e-10
"Vn_GND:pwr" 0.000000000000000e+00
"Vn_SD:v" 0.000000000000000e+00
"Vn_SD:i" -5.105895172730406e-13
"Vn_SD:pwr" -0.000000000000000e+00
"Vn_VDD:v" 1.200000000000000e+00
"Vn_VDD:i" -2.544854118607762e-10
"Vn_VDD:pwr" -3.053824942329314e-10
"Vn_Z:v" 0.000000000000000e+00
"Vn_Z:i" -2.030203617745551e-16
"Vn_Z:pwr" -0.000000000000000e+00
"n_Z" 1.199999494856010e+00
"n_D1" 0.000000000000000e+00
"n_SD" 1.200000000000000e+00
"Vn_D1:n" -7.515497622779864e-14
"Vn_D1:p" 7.515497622779864e-14
"Vn_GND:n" -2.548661170675591e-10
"Vn_GND:p" 2.548661170675591e-10
"Vn_SD:n" 5.105895172730406e-13
"Vn_SD:p" -5.105895172730406e-13
"Vn_VDD:n" 2.544854118607762e-10
"Vn_VDD:p" -2.544854118607762e-10
"Vn_Z:n" 2.030203617745551e-16
"Vn_Z:p" -2.030203617745551e-16
"time" 2.769000000000001e-09
"Vn_D1:v" 0.000000000000000e+00
"Vn_D1:i" 7.518446916119614e-14
"Vn_D1:pwr" 0.000000000000000e+00
"Vn_GND:v" 0.000000000000000e+00
"Vn_GND:i" 2.548662426076146e-10
"Vn_GND:pwr" 0.000000000000000e+00
"Vn_SD:v" 0.000000000000000e+00
"Vn_SD:i" -5.105545844719682e-13
"Vn_SD:pwr" -0.000000000000000e+00
"Vn_VDD:v" 1.200000000000000e+00
"Vn_VDD:i" -2.544859761011696e-10
"Vn_VDD:pwr" -3.053831713214035e-10
"Vn_Z:v" 0.000000000000000e+00
"Vn_Z:i" 1.710132169084942e-16
"Vn_Z:pwr" 0.000000000000000e+00
"n_Z" 1.199999494853173e+00
"n_D1" 0.000000000000000e+00
"n_SD" 1.200000000000000e+00
"Vn_D1:n" -7.518446916119614e-14
"Vn_D1:p" 7.518446916119614e-14
"Vn_GND:n" -2.548662426076146e-10
"Vn_GND:p" 2.548662426076146e-10
"Vn_SD:n" 5.105545844719682e-13
"Vn_SD:p" -5.105545844719682e-13
"Vn_VDD:n" 2.544859761011696e-10
"Vn_VDD:p" -2.544859761011696e-10
"Vn_Z:n" -1.710132169084942e-16
"Vn_Z:p" 1.710132169084942e-16
"time" 3.000000000000000e-09
"Vn_D1:v" 0.000000000000000e+00
"Vn_D1:i" 7.516548430790905e-14
"Vn_D1:pwr" 0.000000000000000e+00
"Vn_GND:v" 0.000000000000000e+00
"Vn_GND:i" 2.548661109053859e-10
"Vn_GND:pwr" 0.000000000000000e+00
"Vn_SD:v" 0.000000000000000e+00
"Vn_SD:i" -5.105776919472779e-13
"Vn_SD:pwr" -0.000000000000000e+00
"Vn_VDD:v" 1.200000000000000e+00
"Vn_VDD:i" -2.544855394947284e-10
"Vn_VDD:pwr" -3.053826473936740e-10
"Vn_Z:v" 0.000000000000000e+00
"Vn_Z:i" -8.923788209131772e-17
"Vn_Z:pwr" -0.000000000000000e+00
"n_Z" 1.199999494855320e+00
"n_D1" 0.000000000000000e+00
"n_SD" 1.200000000000000e+00
"Vn_D1:n" -7.516548430790905e-14
"Vn_D1:p" 7.516548430790905e-14
"Vn_GND:n" -2.548661109053859e-10
"Vn_GND:p" 2.548661109053859e-10
"Vn_SD:n" 5.105776919472779e-13
"Vn_SD:p" -5.105776919472779e-13
"Vn_VDD:n" 2.544855394947284e-10
"Vn_VDD:p" -2.544855394947284e-10
"Vn_Z:n" 8.923788209131772e-17
"Vn_Z:p" -8.923788209131772e-17
"time" 3.010000000000000e-09
"Vn_D1:v" 0.000000000000000e+00
"Vn_D1:i" 7.516546391897134e-14
"Vn_D1:pwr" 0.000000000000000e+00
"Vn_GND:v" 0.000000000000000e+00
"Vn_GND:i" 2.548661193338043e-10
"Vn_GND:pwr" 0.000000000000000e+00
"Vn_SD:v" 0.000000000000000e+00
"Vn_SD:i" -5.105768389666914e-13
"Vn_SD:pwr" -0.000000000000000e+00
"Vn_VDD:v" 1.200000000000000e+00
"Vn_VDD:i" -2.544855724341293e-10
"Vn_VDD:pwr" -3.053826869209551e-10
"Vn_Z:v" 0.000000000000000e+00
"Vn_Z:i" -6.703391504658613e-17
"Vn_Z:pwr" -0.000000000000000e+00
"n_Z" 1.199999494855168e+00
"n_D1" 0.000000000000000e+00
"n_SD" 1.200000000000000e+00
"Vn_D1:n" -7.516546391897134e-14
"Vn_D1:p" 7.516546391897134e-14
"Vn_GND:n" -2.548661193338043e-10
"Vn_GND:p" 2.548661193338043e-10
"Vn_SD:n" 5.105768389666914e-13
"Vn_SD:p" -5.105768389666914e-13
"Vn_VDD:n" 2.544855724341293e-10
"Vn_VDD:p" -2.544855724341293e-10
"Vn_Z:n" 6.703391504658613e-17
"Vn_Z:p" -6.703391504658613e-17
"time" 3.030000000000000e-09
"Vn_D1:v" 0.000000000000000e+00
"Vn_D1:i" 7.516726109539575e-14
"Vn_D1:pwr" 0.000000000000000e+00
"Vn_GND:v" 0.000000000000000e+00
"Vn_GND:i" 2.548661294982892e-10
"Vn_GND:pwr" 0.000000000000000e+00
"Vn_SD:v" 0.000000000000000e+00
"Vn_SD:i" -5.105747388027002e-13
"Vn_SD:pwr" -0.000000000000000e+00
"Vn_VDD:v" 1.200000000000000e+00
"Vn_VDD:i" -2.544856109171717e-10
"Vn_VDD:pwr" -3.053827331006060e-10
"Vn_Z:v" 0.000000000000000e+00
"Vn_Z:i" -4.262553743957383e-17
"Vn_Z:pwr" -0.000000000000000e+00
"n_Z" 1.199999494854974e+00
"n_D1" 0.000000000000000e+00
"n_SD" 1.200000000000000e+00
"Vn_D1:n" -7.516726109539575e-14
"Vn_D1:p" 7.516726109539575e-14
"Vn_GND:n" -2.548661294982892e-10
"Vn_GND:p" 2.548661294982892e-10
"Vn_SD:n" 5.105747388027002e-13
"Vn_SD:p" -5.105747388027002e-13
"Vn_VDD:n" 2.544856109171717e-10
"Vn_VDD:p" -2.544856109171717e-10
"Vn_Z:n" 4.262553743957383e-17
"Vn_Z:p" -4.262553743957383e-17
"time" 3.070000000000001e-09
"Vn_D1:v" 0.000000000000000e+00
"Vn_D1:i" 7.517005930852195e-14
"Vn_D1:pwr" 0.000000000000000e+00
"Vn_GND:v" 0.000000000000000e+00
"Vn_GND:i" 2.548661408506719e-10
"Vn_GND:pwr" 0.000000000000000e+00
"Vn_SD:v" 0.000000000000000e+00
"Vn_SD:i" -5.105718724901061e-13
"Vn_SD:pwr" -0.000000000000000e+00
"Vn_VDD:v" 1.200000000000000e+00
"Vn_VDD:i" -2.544856614096234e-10
"Vn_VDD:pwr" -3.053827936915481e-10
"Vn_Z:v" 0.000000000000000e+00
"Vn_Z:i" -1.182099971343272e-17
"Vn_Z:pwr" -0.000000000000000e+00
"n_Z" 1.199999494854726e+00
"n_D1" 0.000000000000000e+00
"n_SD" 1.200000000000000e+00
"Vn_D1:n" -7.517005930852195e-14
"Vn_D1:p" 7.517005930852195e-14
"Vn_GND:n" -2.548661408506719e-10
"Vn_GND:p" 2.548661408506719e-10
"Vn_SD:n" 5.105718724901061e-13
"Vn_SD:p" -5.105718724901061e-13
"Vn_VDD:n" 2.544856614096234e-10
"Vn_VDD:p" -2.544856614096234e-10
"Vn_Z:n" 1.182099971343272e-17
"Vn_Z:p" -1.182099971343272e-17
"time" 3.150000000000003e-09
"Vn_D1:v" 0.000000000000000e+00
"Vn_D1:i" 7.517149805889519e-14
"Vn_D1:pwr" 0.000000000000000e+00
"Vn_GND:v" 0.000000000000000e+00
"Vn_GND:i" 2.548661442892124e-10
"Vn_GND:pwr" 0.000000000000000e+00
"Vn_SD:v" 0.000000000000000e+00
"Vn_SD:i" -5.105697584438589e-13
"Vn_SD:pwr" -0.000000000000000e+00
"Vn_VDD:v" 1.200000000000000e+00
"Vn_VDD:i" -2.544856736457737e-10
"Vn_VDD:pwr" -3.053828083749285e-10
"Vn_Z:v" 0.000000000000000e+00
"Vn_Z:i" 2.470166859715848e-18
"Vn_Z:pwr" 0.000000000000000e+00
"n_Z" 1.199999494854641e+00
"n_D1" 0.000000000000000e+00
"n_SD" 1.200000000000000e+00
"Vn_D1:n" -7.517149805889519e-14
"Vn_D1:p" 7.517149805889519e-14
"Vn_GND:n" -2.548661442892124e-10
"Vn_GND:p" 2.548661442892124e-10
"Vn_SD:n" 5.105697584438589e-13
"Vn_SD:p" -5.105697584438589e-13
"Vn_VDD:n" 2.544856736457737e-10
"Vn_VDD:p" -2.544856736457737e-10
"Vn_Z:n" -2.470166859715848e-18
"Vn_Z:p" 2.470166859715848e-18
"time" 3.310000000000005e-09
"Vn_D1:v" 0.000000000000000e+00
"Vn_D1:i" 7.517118939585231e-14
"Vn_D1:pwr" 0.000000000000000e+00
"Vn_GND:v" 0.000000000000000e+00
"Vn_GND:i" 2.548661322899605e-10
"Vn_GND:pwr" 0.000000000000000e+00
"Vn_SD:v" 0.000000000000000e+00
"Vn_SD:i" -5.105707134325724e-13
"Vn_SD:pwr" -0.000000000000000e+00
"Vn_VDD:v" 1.200000000000000e+00
"Vn_VDD:i" -2.544856697135057e-10
"Vn_VDD:pwr" -3.053828036562068e-10
"Vn_Z:v" 0.000000000000000e+00
"Vn_Z:i" -1.285591915909757e-19
"Vn_Z:pwr" -0.000000000000000e+00
"n_Z" 1.199999494854684e+00
"n_D1" 0.000000000000000e+00
"n_SD" 1.200000000000000e+00
"Vn_D1:n" -7.517118939585231e-14
"Vn_D1:p" 7.517118939585231e-14
"Vn_GND:n" -2.548661322899605e-10
"Vn_GND:p" 2.548661322899605e-10
"Vn_SD:n" 5.105707134325724e-13
"Vn_SD:p" -5.105707134325724e-13
"Vn_VDD:n" 2.544856697135057e-10
"Vn_VDD:p" -2.544856697135057e-10
"Vn_Z:n" 1.285591915909757e-19
"Vn_Z:p" -1.285591915909757e-19
"time" 3.630000000000011e-09
"Vn_D1:v" 0.000000000000000e+00
"Vn_D1:i" 7.517137079675853e-14
"Vn_D1:pwr" 0.000000000000000e+00
"Vn_GND:v" 0.000000000000000e+00
"Vn_GND:i" 2.548661155596105e-10
"Vn_GND:pwr" 0.000000000000000e+00
"Vn_SD:v" 0.000000000000000e+00
"Vn_SD:i" -5.105698752920710e-13
"Vn_SD:pwr" -0.000000000000000e+00
"Vn_VDD:v" 1.200000000000000e+00
"Vn_VDD:i" -2.544856480505858e-10
"Vn_VDD:pwr" -3.053827776607029e-10
"Vn_Z:v" 0.000000000000000e+00
"Vn_Z:i" 2.078968094047627e-18
"Vn_Z:pwr" 0.000000000000000e+00
"n_Z" 1.199999494854755e+00
"n_D1" 0.000000000000000e+00
"n_SD" 1.200000000000000e+00
"Vn_D1:n" -7.517137079675853e-14
"Vn_D1:p" 7.517137079675853e-14
"Vn_GND:n" -2.548661155596105e-10
"Vn_GND:p" 2.548661155596105e-10
"Vn_SD:n" 5.105698752920710e-13
"Vn_SD:p" -5.105698752920710e-13
"Vn_VDD:n" 2.544856480505858e-10
"Vn_VDD:p" -2.544856480505858e-10
"Vn_Z:n" -2.078968094047627e-18
"Vn_Z:p" 2.078968094047627e-18
"time" 4.270000000000022e-09
"Vn_D1:v" 0.000000000000000e+00
"Vn_D1:i" 7.517114376546232e-14
"Vn_D1:pwr" 0.000000000000000e+00
"Vn_GND:v" 0.000000000000000e+00
"Vn_GND:i" 2.548660759949540e-10
"Vn_GND:pwr" 0.000000000000000e+00
"Vn_SD:v" 0.000000000000000e+00
"Vn_SD:i" -5.105707926098697e-13
"Vn_SD:pwr" -0.000000000000000e+00
"Vn_VDD:v" 1.200000000000000e+00
"Vn_VDD:i" -2.544856144058450e-10
"Vn_VDD:pwr" -3.053827372870140e-10
"Vn_Z:v" 0.000000000000000e+00
"Vn_Z:i" 2.803458947992621e-19
"Vn_Z:pwr" 0.000000000000000e+00
"n_Z" 1.199999494854926e+00
"n_D1" 0.000000000000000e+00
"n_SD" 1.200000000000000e+00
"Vn_D1:n" -7.517114376546232e-14
"Vn_D1:p" 7.517114376546232e-14
"Vn_GND:n" -2.548660759949540e-10
"Vn_GND:p" 2.548660759949540e-10
"Vn_SD:n" 5.105707926098697e-13
"Vn_SD:p" -5.105707926098697e-13
"Vn_VDD:n" 2.544856144058450e-10
"Vn_VDD:p" -2.544856144058450e-10
"Vn_Z:n" -2.803458947992621e-19
"Vn_Z:p" 2.803458947992621e-19
"time" 5.050000000000022e-09
"Vn_D1:v" 0.000000000000000e+00
"Vn_D1:i" 7.517151183104967e-14
"Vn_D1:pwr" 0.000000000000000e+00
"Vn_GND:v" 0.000000000000000e+00
"Vn_GND:i" 2.548660340386964e-10
"Vn_GND:pwr" 0.000000000000000e+00
"Vn_SD:v" 0.000000000000000e+00
"Vn_SD:i" -5.105696679414142e-13
"Vn_SD:pwr" -0.000000000000000e+00
"Vn_VDD:v" 1.200000000000000e+00
"Vn_VDD:i" -2.544855632333675e-10
"Vn_VDD:pwr" -3.053826758800410e-10
"Vn_Z:v" 0.000000000000000e+00
"Vn_Z:i" 1.819501404390334e-18
"Vn_Z:pwr" 0.000000000000000e+00
"n_Z" 1.199999494855112e+00
"n_D1" 0.000000000000000e+00
"n_SD" 1.200000000000000e+00
"Vn_D1:n" -7.517151183104967e-14
"Vn_D1:p" 7.517151183104967e-14
"Vn_GND:n" -2.548660340386964e-10
"Vn_GND:p" 2.548660340386964e-10
"Vn_SD:n" 5.105696679414142e-13
"Vn_SD:p" -5.105696679414142e-13
"Vn_VDD:n" 2.544855632333675e-10
"Vn_VDD:p" -2.544855632333675e-10
"Vn_Z:n" -1.819501404390334e-18
"Vn_Z:p" 1.819501404390334e-18
"time" 5.830000000000022e-09
"Vn_D1:v" 0.000000000000000e+00
"Vn_D1:i" 7.517111462574117e-14
"Vn_D1:pwr" 0.000000000000000e+00
"Vn_GND:v" 0.000000000000000e+00
"Vn_GND:i" 2.548659851896355e-10
"Vn_GND:pwr" 0.000000000000000e+00
"Vn_SD:v" 0.000000000000000e+00
"Vn_SD:i" -5.105708885693069e-13
"Vn_SD:pwr" -0.000000000000000e+00
"Vn_VDD:v" 1.200000000000000e+00
"Vn_VDD:i" -2.544855195314381e-10
"Vn_VDD:pwr" -3.053826234377257e-10
"Vn_Z:v" 0.000000000000000e+00
"Vn_Z:i" 6.584965167590489e-19
"Vn_Z:pwr" 0.000000000000000e+00
"n_Z" 1.199999494855332e+00
"n_D1" 0.000000000000000e+00
"n_SD" 1.200000000000000e+00
"Vn_D1:n" -7.517111462574117e-14
"Vn_D1:p" 7.517111462574117e-14
"Vn_GND:n" -2.548659851896355e-10
"Vn_GND:p" 2.548659851896355e-10
"Vn_SD:n" 5.105708885693069e-13
"Vn_SD:p" -5.105708885693069e-13
"Vn_VDD:n" 2.544855195314381e-10
"Vn_VDD:p" -2.544855195314381e-10
"Vn_Z:n" -6.584965167590489e-19
"Vn_Z:p" 6.584965167590489e-19
"time" 6.010000000000000e-09
"Vn_D1:v" 0.000000000000000e+00
"Vn_D1:i" 7.517135750023481e-14
"Vn_D1:pwr" 0.000000000000000e+00
"Vn_GND:v" 0.000000000000000e+00
"Vn_GND:i" 2.548659782717342e-10
"Vn_GND:pwr" 0.000000000000000e+00
"Vn_SD:v" 0.000000000000000e+00
"Vn_SD:i" -5.105696654843133e-13
"Vn_SD:pwr" -0.000000000000000e+00
"Vn_VDD:v" 1.200000000000000e+00
"Vn_VDD:i" -2.544855131764906e-10
"Vn_VDD:pwr" -3.053826158117887e-10
"Vn_Z:v" 0.000000000000000e+00
"Vn_Z:i" 1.815320118505416e-19
"Vn_Z:pwr" 0.000000000000000e+00
"n_Z" 1.199999494855349e+00
"n_D1" 0.000000000000000e+00
"n_SD" 1.200000000000000e+00
"Vn_D1:n" -7.517135750023481e-14
"Vn_D1:p" 7.517135750023481e-14
"Vn_GND:n" -2.548659782717342e-10
"Vn_GND:p" 2.548659782717342e-10
"Vn_SD:n" 5.105696654843133e-13
"Vn_SD:p" -5.105696654843133e-13
"Vn_VDD:n" 2.544855131764906e-10
"Vn_VDD:p" -2.544855131764906e-10
"Vn_Z:n" -1.815320118505416e-19
"Vn_Z:p" 1.815320118505416e-19
"time" 6.019999550200000e-09
"Vn_D1:v" 0.000000000000000e+00
"Vn_D1:i" 7.517163097561731e-14
"Vn_D1:pwr" 0.000000000000000e+00
"Vn_GND:v" 0.000000000000000e+00
"Vn_GND:i" 2.548659764014652e-10
"Vn_GND:pwr" 0.000000000000000e+00
"Vn_SD:v" 0.000000000000000e+00
"Vn_SD:i" -5.105702678081803e-13
"Vn_SD:pwr" -0.000000000000000e+00
"Vn_VDD:v" 1.200000000000000e+00
"Vn_VDD:i" -2.544855113533057e-10
"Vn_VDD:pwr" -3.053826136239668e-10
"Vn_Z:v" 0.000000000000000e+00
"Vn_Z:i" 2.109902839895924e-18
"Vn_Z:pwr" 0.000000000000000e+00
"n_Z" 1.199999494855354e+00
"n_D1" 0.000000000000000e+00
"n_SD" 1.200000000000000e+00
"Vn_D1:n" -7.517163097561731e-14
"Vn_D1:p" 7.517163097561731e-14
"Vn_GND:n" -2.548659764014652e-10
"Vn_GND:p" 2.548659764014652e-10
"Vn_SD:n" 5.105702678081803e-13
"Vn_SD:p" -5.105702678081803e-13
"Vn_VDD:n" 2.544855113533057e-10
"Vn_VDD:p" -2.544855113533057e-10
"Vn_Z:n" -2.109902839895924e-18
"Vn_Z:p" 2.109902839895924e-18
"time" 6.020000000000000e-09
"Vn_D1:v" 0.000000000000000e+00
"Vn_D1:i" -6.134735487278257e-07
"Vn_D1:pwr" -0.000000000000000e+00
"Vn_GND:v" 0.000000000000000e+00
"Vn_GND:i" 1.103289226901041e-07
"Vn_GND:pwr" 0.000000000000000e+00
"Vn_SD:v" 0.000000000000000e+00
"Vn_SD:i" 5.431367800903716e-11
"Vn_SD:pwr" 0.000000000000000e+00
"Vn_VDD:v" 1.200000000000000e+00
"Vn_VDD:i" 5.030897695789177e-07
"Vn_VDD:pwr" 6.037077234947012e-07
"Vn_Z:v" 0.000000000000000e+00
"Vn_Z:i" 4.896796341656728e-13
"Vn_Z:pwr" 0.000000000000000e+00
"n_Z" 1.199999494855404e+00
"n_D1" 2.456136039079392e-07
"n_SD" 1.200000000000000e+00
"Vn_D1:n" 6.134735487278257e-07
"Vn_D1:p" -6.134735487278257e-07
"Vn_GND:n" -1.103289226901041e-07
"Vn_GND:p" 1.103289226901041e-07
"Vn_SD:n" -5.431367800903716e-11
"Vn_SD:p" 5.431367800903716e-11
"Vn_VDD:n" -5.030897695789177e-07
"Vn_VDD:p" 5.030897695789177e-07
"Vn_Z:n" -4.896796341656728e-13
"Vn_Z:p" 4.896796341656728e-13
"time" 6.020000899600001e-09
"Vn_D1:v" 0.000000000000000e+00
"Vn_D1:i" -6.147226906971959e-07
"Vn_D1:pwr" -0.000000000000000e+00
"Vn_GND:v" 0.000000000000000e+00
"Vn_GND:i" 1.105449063739211e-07
"Vn_GND:pwr" 0.000000000000000e+00
"Vn_SD:v" 0.000000000000000e+00
"Vn_SD:i" 1.633539351693150e-10
"Vn_SD:pwr" 0.000000000000000e+00
"Vn_VDD:v" 1.200000000000000e+00
"Vn_VDD:i" 5.040110018047151e-07
"Vn_VDD:pwr" 6.048132021656581e-07
"Vn_Z:v" 0.000000000000000e+00
"Vn_Z:i" 3.373799005470682e-12
"Vn_Z:pwr" 0.000000000000000e+00
"n_Z" 1.199999494856093e+00
"n_D1" 7.368408117238176e-07
"n_SD" 1.200000000000000e+00
"Vn_D1:n" 6.147226906971959e-07
"Vn_D1:p" -6.147226906971959e-07
"Vn_GND:n" -1.105449063739211e-07
"Vn_GND:p" 1.105449063739211e-07
"Vn_SD:n" -1.633539351693150e-10
"Vn_SD:p" 1.633539351693150e-10
"Vn_VDD:n" -5.040110018047151e-07
"Vn_VDD:p" 5.040110018047151e-07
"Vn_Z:n" -3.373799005470682e-12
"Vn_Z:p" 3.373799005470682e-12
"time" 6.020002698800002e-09
"Vn_D1:v" 0.000000000000000e+00
"Vn_D1:i" -6.172051184688496e-07
"Vn_D1:pwr" -0.000000000000000e+00
"Vn_GND:v" 0.000000000000000e+00
"Vn_GND:i" 1.109743278689673e-07
"Vn_GND:pwr" 0.000000000000000e+00
"Vn_SD:v" 0.000000000000000e+00
"Vn_SD:i" 3.802229358896803e-10
"Vn_SD:pwr" 0.000000000000000e+00
"Vn_VDD:v" 1.200000000000000e+00
"Vn_VDD:i" 5.058376661038085e-07
"Vn_VDD:pwr" 6.070051993245702e-07
"Vn_Z:v" 0.000000000000000e+00
"Vn_Z:i" 1.284625418888135e-11
"Vn_Z:pwr" 0.000000000000000e+00
"n_Z" 1.199999494859410e+00
"n_D1" 1.719295227355574e-06
"n_SD" 1.200000000000000e+00
"Vn_D1:n" 6.172051184688496e-07
"Vn_D1:p" -6.172051184688496e-07
"Vn_GND:n" -1.109743278689673e-07
"Vn_GND:p" 1.109743278689673e-07
"Vn_SD:n" -3.802229358896803e-10
"Vn_SD:p" 3.802229358896803e-10
"Vn_VDD:n" -5.058376661038085e-07
"Vn_VDD:p" 5.058376661038085e-07
"Vn_Z:n" -1.284625418888135e-11
"Vn_Z:p" 1.284625418888135e-11
"time" 6.020006297200004e-09
"Vn_D1:v" 0.000000000000000e+00
"Vn_D1:i" -6.220761720297776e-07
"Vn_D1:pwr" -0.000000000000000e+00
"Vn_GND:v" 0.000000000000000e+00
"Vn_GND:i" 1.118180612327470e-07
"Vn_GND:pwr" 0.000000000000000e+00
"Vn_SD:v" 0.000000000000000e+00
"Vn_SD:i" 8.067616604477146e-10
"Vn_SD:pwr" 0.000000000000000e+00
"Vn_VDD:v" 1.200000000000000e+00
"Vn_VDD:i" 5.093984824264574e-07
"Vn_VDD:pwr" 6.112781789117489e-07
"Vn_Z:v" 0.000000000000000e+00
"Vn_Z:i" 5.281245355742367e-11
"Vn_Z:pwr" 0.000000000000000e+00
"n_Z" 1.199999494886258e+00
"n_D1" 3.684204058619088e-06
"n_SD" 1.200000000000000e+00
"Vn_D1:n" 6.220761720297776e-07
"Vn_D1:p" -6.220761720297776e-07
"Vn_GND:n" -1.118180612327470e-07
"Vn_GND:p" 1.118180612327470e-07
"Vn_SD:n" -8.067616604477146e-10
"Vn_SD:p" 8.067616604477146e-10
"Vn_VDD:n" -5.093984824264574e-07
"Vn_VDD:p" 5.093984824264574e-07
"Vn_Z:n" -5.281245355742367e-11
"Vn_Z:p" 5.281245355742367e-11
"time" 6.020013494000009e-09
"Vn_D1:v" 0.000000000000000e+00
"Vn_D1:i" -6.314573118671830e-07
"Vn_D1:pwr" -0.000000000000000e+00
"Vn_GND:v" 0.000000000000000e+00
"Vn_GND:i" 1.134465868205307e-07
"Vn_GND:pwr" 0.000000000000000e+00
"Vn_SD:v" 0.000000000000000e+00
"Vn_SD:i" 1.631696296317233e-09
"Vn_SD:pwr" 0.000000000000000e+00
"Vn_VDD:v" 1.200000000000000e+00
"Vn_VDD:i" 5.161731012814069e-07
"Vn_VDD:pwr" 6.194077215376883e-07
"Vn_Z:v" 0.000000000000000e+00
"Vn_Z:i" 2.058716212528318e-10
"Vn_Z:pwr" 0.000000000000000e+00
"n_Z" 1.199999495097815e+00
"n_D1" 7.614021721146115e-06
"n_SD" 1.200000000000000e+00
"Vn_D1:n" 6.314573118671830e-07
"Vn_D1:p" -6.314573118671830e-07
"Vn_GND:n" -1.134465868205307e-07
"Vn_GND:p" 1.134465868205307e-07
"Vn_SD:n" -1.631696296317233e-09
"Vn_SD:p" 1.631696296317233e-09
"Vn_VDD:n" -5.161731012814069e-07
"Vn_VDD:p" 5.161731012814069e-07
"Vn_Z:n" -2.058716212528318e-10
"Vn_Z:p" 2.058716212528318e-10
"time" 6.020027887600018e-09
"Vn_D1:v" 0.000000000000000e+00
"Vn_D1:i" -6.488790562701061e-07
"Vn_D1:pwr" -0.000000000000000e+00
"Vn_GND:v" 0.000000000000000e+00
"Vn_GND:i" 1.164798779705891e-07
"Vn_GND:pwr" 0.000000000000000e+00
"Vn_SD:v" 0.000000000000000e+00
"Vn_SD:i" 3.174355437203325e-09
"Vn_SD:pwr" 0.000000000000000e+00
"Vn_VDD:v" 1.200000000000000e+00
"Vn_VDD:i" 5.284915256121531e-07
"Vn_VDD:pwr" 6.341898307345837e-07
"Vn_Z:v" 0.000000000000000e+00
"Vn_Z:i" 7.332432750581064e-10
"Vn_Z:pwr" 0.000000000000000e+00
"n_Z" 1.199999496633865e+00
"n_D1" 1.547365704620017e-05
"n_SD" 1.200000000000000e+00
"Vn_D1:n" 6.488790562701061e-07
"Vn_D1:p" -6.488790562701061e-07
"Vn_GND:n" -1.164798779705891e-07
"Vn_GND:p" 1.164798779705891e-07
"Vn_SD:n" -3.174355437203325e-09
"Vn_SD:p" 3.174355437203325e-09
"Vn_VDD:n" -5.284915256121531e-07
"Vn_VDD:p" 5.284915256121531e-07
"Vn_Z:n" -7.332432750581064e-10
"Vn_Z:p" 7.332432750581064e-10
"time" 6.020056674800035e-09
"Vn_D1:v" 0.000000000000000e+00
"Vn_D1:i" -6.668232252575369e-07
"Vn_D1:pwr" -0.000000000000000e+00
"Vn_GND:v" 0.000000000000000e+00
"Vn_GND:i" 1.217939537458540e-07
"Vn_GND:pwr" 0.000000000000000e+00
"Vn_SD:v" 0.000000000000000e+00
"Vn_SD:i" 5.880186817951719e-09
"Vn_SD:pwr" 0.000000000000000e+00
"Vn_VDD:v" 1.200000000000000e+00
"Vn_VDD:i" 5.368444955294767e-07
"Vn_VDD:pwr" 6.442133946353720e-07
"Vn_Z:v" 0.000000000000000e+00
"Vn_Z:i" 2.304533184020519e-09
"Vn_Z:pwr" 0.000000000000000e+00
"n_Z" 1.199999506571261e+00
"n_D1" 3.119292769630828e-05
"n_SD" 1.200000000000000e+00
"Vn_D1:n" 6.668232252575369e-07
"Vn_D1:p" -6.668232252575369e-07
"Vn_GND:n" -1.217939537458540e-07
"Vn_GND:p" 1.217939537458540e-07
"Vn_SD:n" -5.880186817951719e-09
"Vn_SD:p" 5.880186817951719e-09
"Vn_VDD:n" -5.368444955294767e-07
"Vn_VDD:p" 5.368444955294767e-07
"Vn_Z:n" -2.304533184020519e-09
"Vn_Z:p" 2.304533184020519e-09
"time" 6.020114249200071e-09
"Vn_D1:v" 0.000000000000000e+00
"Vn_D1:i" -7.160307489790800e-07
"Vn_D1:pwr" -0.000000000000000e+00
"Vn_GND:v" 0.000000000000000e+00
"Vn_GND:i" 1.299380833804068e-07
"Vn_GND:pwr" 0.000000000000000e+00
"Vn_SD:v" 0.000000000000000e+00
"Vn_SD:i" 1.008645296876374e-08
"Vn_SD:pwr" 0.000000000000000e+00
"Vn_VDD:v" 1.200000000000000e+00
"Vn_VDD:i" 5.699488568960772e-07
"Vn_VDD:pwr" 6.839386282752927e-07
"Vn_Z:v" 0.000000000000000e+00
"Vn_Z:i" 6.057301852185446e-09
"Vn_Z:pwr" 0.000000000000000e+00
"n_Z" 1.199999561278947e+00
"n_D1" 6.263146899652450e-05
"n_SD" 1.200000000000000e+00
"Vn_D1:n" 7.160307489790800e-07
"Vn_D1:p" -7.160307489790800e-07
"Vn_GND:n" -1.299380833804068e-07
"Vn_GND:p" 1.299380833804068e-07
"Vn_SD:n" -1.008645296876374e-08
"Vn_SD:p" 1.008645296876374e-08
"Vn_VDD:n" -5.699488568960772e-07
"Vn_VDD:p" 5.699488568960772e-07
"Vn_Z:n" -6.057301852185446e-09
"Vn_Z:p" 6.057301852185446e-09
"time" 6.020229398000143e-09
"Vn_D1:v" 0.000000000000000e+00
"Vn_D1:i" -7.609121555224147e-07
"Vn_D1:pwr" -0.000000000000000e+00
"Vn_GND:v" 0.000000000000000e+00
"Vn_GND:i" 1.398447206764633e-07
"Vn_GND:pwr" 0.000000000000000e+00
"Vn_SD:v" 0.000000000000000e+00
"Vn_SD:i" 1.530644766883345e-08
"Vn_SD:pwr" 0.000000000000000e+00